/*--------------------------------*- C++ -*----------------------------------*\
| =========                 |                                                 |
| \\      /  F ield         | OpenFOAM: The Open Source CFD Toolbox           |
|  \\    /   O peration     | Version:  4.1                                   |
|   \\  /    A nd           | Web:      www.OpenFOAM.org                      |
|    \\/     M anipulation  |                                                 |
\*---------------------------------------------------------------------------*/
FoamFile
{
    version     2.0;
    format      ascii;
    class       volVectorField;
    location    "1";
    object      U;
}
// * * * * * * * * * * * * * * * * * * * * * * * * * * * * * * * * * * * * * //

dimensions      [0 1 -1 0 0 0 0];

internalField   nonuniform List<vector> 
12013
(
(0.100006 -1.48338e-06 0)
(0.100027 -2.41459e-06 0)
(0.100056 -2.68801e-06 0)
(0.100083 -2.17679e-06 0)
(0.1001 -9.11857e-07 0)
(0.100102 9.32942e-07 0)
(0.100084 3.06024e-06 0)
(0.100046 5.12646e-06 0)
(0.0999911 6.8398e-06 0)
(0.0999242 8.02677e-06 0)
(0.0998509 8.64843e-06 0)
(0.0997762 8.77434e-06 0)
(0.099704 8.53211e-06 0)
(0.0996367 8.06093e-06 0)
(0.0995754 7.47891e-06 0)
(0.0995204 6.86658e-06 0)
(0.0994715 6.26885e-06 0)
(0.0994283 5.70152e-06 0)
(0.0993904 5.16189e-06 0)
(0.0993574 4.63789e-06 0)
(0.0993291 4.11571e-06 0)
(0.0993054 3.58159e-06 0)
(0.0992863 3.026e-06 0)
(0.0992718 2.44204e-06 0)
(0.0992619 1.82522e-06 0)
(0.0992567 1.17394e-06 0)
(0.0992563 4.88201e-07 0)
(0.0992608 -2.31764e-07 0)
(0.0992701 -9.8432e-07 0)
(0.0992842 -1.76734e-06 0)
(0.0993033 -2.5782e-06 0)
(0.0993272 -3.41464e-06 0)
(0.0993558 -4.27217e-06 0)
(0.0993893 -5.14726e-06 0)
(0.0994273 -6.03477e-06 0)
(0.0994699 -6.92875e-06 0)
(0.0995168 -7.82262e-06 0)
(0.0995679 -8.70773e-06 0)
(0.0996229 -9.57525e-06 0)
(0.0996816 -1.04142e-05 0)
(0.0997436 -1.12118e-05 0)
(0.0998087 -1.19544e-05 0)
(0.0998763 -1.26257e-05 0)
(0.099946 -1.3207e-05 0)
(0.100017 -1.36786e-05 0)
(0.10009 -1.40164e-05 0)
(0.100162 -1.41943e-05 0)
(0.100235 -1.41829e-05 0)
(0.100305 -1.39484e-05 0)
(0.100374 -1.34524e-05 0)
(0.10044 -1.2652e-05 0)
(0.100501 -1.1497e-05 0)
(0.100557 -9.92974e-06 0)
(0.100605 -7.8837e-06 0)
(0.100645 -5.28187e-06 0)
(0.100675 -2.03294e-06 0)
(0.100692 1.97124e-06 0)
(0.100695 6.85975e-06 0)
(0.10068 1.27858e-05 0)
(0.100645 1.99367e-05 0)
(0.100587 2.85417e-05 0)
(0.100501 3.88834e-05 0)
(0.100383 5.13152e-05 0)
(0.100227 6.62836e-05 0)
(0.100027 8.43596e-05 0)
(0.0997744 0.000106284 0)
(0.0994596 0.000133031 0)
(0.0990704 0.000165905 0)
(0.0985914 0.000206683 0)
(0.0980028 0.00025783 0)
(0.0972788 0.000322843 0)
(0.0963851 0.000406795 0)
(0.095275 0.000517216 0)
(0.0938837 0.000665576 0)
(0.092119 0.000869787 0)
(0.089847 0.00115853 0)
(0.0868685 0.0015789 0)
(0.0828664 0.00221238 0)
(0.0773423 0.00322454 0)
(0.069696 0.00507993 0)
(0.0610736 0.00987469 0)
(0.100006 -4.54768e-06 0)
(0.100027 -7.42356e-06 0)
(0.100056 -8.27251e-06 0)
(0.100083 -6.71037e-06 0)
(0.100101 -2.83484e-06 0)
(0.100103 2.82375e-06 0)
(0.100085 9.35246e-06 0)
(0.100048 1.56975e-05 0)
(0.0999932 2.09625e-05 0)
(0.0999266 2.46135e-05 0)
(0.0998535 2.6531e-05 0)
(0.0997789 2.69256e-05 0)
(0.0997068 2.61896e-05 0)
(0.0996394 2.47497e-05 0)
(0.0995779 2.29676e-05 0)
(0.0995228 2.10923e-05 0)
(0.0994737 1.92607e-05 0)
(0.0994303 1.75218e-05 0)
(0.0993922 1.58676e-05 0)
(0.0993589 1.42621e-05 0)
(0.0993304 1.26614e-05 0)
(0.0993064 1.1026e-05 0)
(0.099287 9.32446e-06 0)
(0.0992721 7.5362e-06 0)
(0.0992619 5.64841e-06 0)
(0.0992563 3.65574e-06 0)
(0.0992554 1.55697e-06 0)
(0.0992594 -6.45221e-07 0)
(0.0992681 -2.94649e-06 0)
(0.0992816 -5.34075e-06 0)
(0.0993 -7.82036e-06 0)
(0.0993232 -1.03765e-05 0)
(0.0993511 -1.29978e-05 0)
(0.0993836 -1.56709e-05 0)
(0.0994208 -1.83812e-05 0)
(0.0994623 -2.1111e-05 0)
(0.0995082 -2.3839e-05 0)
(0.0995582 -2.65401e-05 0)
(0.099612 -2.91851e-05 0)
(0.0996694 -3.17414e-05 0)
(0.0997301 -3.41707e-05 0)
(0.0997936 -3.64296e-05 0)
(0.0998597 -3.84686e-05 0)
(0.0999279 -4.02316e-05 0)
(0.0999975 -4.16561e-05 0)
(0.100068 -4.26696e-05 0)
(0.100139 -4.31926e-05 0)
(0.100209 -4.31336e-05 0)
(0.100278 -4.23908e-05 0)
(0.100345 -4.08467e-05 0)
(0.100408 -3.83683e-05 0)
(0.100467 -3.4803e-05 0)
(0.100521 -2.99758e-05 0)
(0.100567 -2.36837e-05 0)
(0.100605 -1.56904e-05 0)
(0.100633 -5.71824e-06 0)
(0.100648 6.56468e-06 0)
(0.100649 2.15455e-05 0)
(0.100632 3.96926e-05 0)
(0.100596 6.15725e-05 0)
(0.100537 8.78783e-05 0)
(0.10045 0.000119464 0)
(0.100332 0.000157394 0)
(0.100177 0.00020301 0)
(0.0999789 0.000258021 0)
(0.0997301 0.000324636 0)
(0.0994215 0.000405749 0)
(0.0990417 0.000505208 0)
(0.0985768 0.000628217 0)
(0.098009 0.000781943 0)
(0.0973159 0.000976434 0)
(0.0964682 0.00122607 0)
(0.0954278 0.00155182 0)
(0.0941439 0.0019849 0)
(0.092549 0.00257254 0)
(0.0905536 0.00338709 0)
(0.0880407 0.00453943 0)
(0.0848558 0.0061976 0)
(0.0808255 0.00861197 0)
(0.0760014 0.0120822 0)
(0.0717901 0.0164931 0)
(0.100005 -7.79292e-06 0)
(0.100026 -1.28021e-05 0)
(0.100055 -1.42945e-05 0)
(0.100083 -1.1641e-05 0)
(0.100102 -5.0064e-06 0)
(0.100104 4.70388e-06 0)
(0.100088 1.59255e-05 0)
(0.100051 2.68482e-05 0)
(0.0999975 3.59287e-05 0)
(0.0999318 4.22449e-05 0)
(0.0998593 4.55843e-05 0)
(0.0997851 4.6304e-05 0)
(0.0997131 4.50739e-05 0)
(0.0996457 4.26274e-05 0)
(0.0995842 3.95847e-05 0)
(0.0995288 3.6376e-05 0)
(0.0994794 3.32385e-05 0)
(0.0994356 3.02574e-05 0)
(0.099397 2.74208e-05 0)
(0.0993634 2.46684e-05 0)
(0.0993343 2.19257e-05 0)
(0.0993099 1.91249e-05 0)
(0.0992899 1.62132e-05 0)
(0.0992744 1.31547e-05 0)
(0.0992634 9.92863e-06 0)
(0.0992571 6.52479e-06 0)
(0.0992554 2.94131e-06 0)
(0.0992584 -8.17113e-07 0)
(0.0992662 -4.74263e-06 0)
(0.0992786 -8.82465e-06 0)
(0.0992958 -1.30508e-05 0)
(0.0993176 -1.74043e-05 0)
(0.099344 -2.18667e-05 0)
(0.099375 -2.64149e-05 0)
(0.0994104 -3.10235e-05 0)
(0.0994502 -3.56613e-05 0)
(0.099494 -4.02916e-05 0)
(0.0995419 -4.48718e-05 0)
(0.0995934 -4.93521e-05 0)
(0.0996484 -5.36754e-05 0)
(0.0997064 -5.77767e-05 0)
(0.0997673 -6.15808e-05 0)
(0.0998305 -6.50028e-05 0)
(0.0998955 -6.79475e-05 0)
(0.0999619 -7.0306e-05 0)
(0.100029 -7.1956e-05 0)
(0.100096 -7.27604e-05 0)
(0.100163 -7.25635e-05 0)
(0.100228 -7.11899e-05 0)
(0.100291 -6.84406e-05 0)
(0.10035 -6.40874e-05 0)
(0.100405 -5.78718e-05 0)
(0.100454 -4.94949e-05 0)
(0.100497 -3.86125e-05 0)
(0.10053 -2.48226e-05 0)
(0.100553 -7.65553e-06 0)
(0.100565 1.34473e-05 0)
(0.100561 3.91392e-05 0)
(0.100541 7.02067e-05 0)
(0.100502 0.0001076 0)
(0.10044 0.000152474 0)
(0.100351 0.00020625 0)
(0.100233 0.000270688 0)
(0.100079 0.000347993 0)
(0.0998836 0.000440959 0)
(0.0996409 0.000553165 0)
(0.0993424 0.000689256 0)
(0.0989783 0.000855338 0)
(0.0985371 0.00105955 0)
(0.0980044 0.00131291 0)
(0.0973629 0.00163051 0)
(0.0965913 0.0020334 0)
(0.0956641 0.00255121 0)
(0.0945506 0.00322606 0)
(0.0932162 0.00411803 0)
(0.0916253 0.00531193 0)
(0.0897506 0.00692334 0)
(0.0875904 0.00909753 0)
(0.0852143 0.0119854 0)
(0.0829036 0.0156166 0)
(0.0814202 0.0193722 0)
(0.100005 -1.12159e-05 0)
(0.100026 -1.85676e-05 0)
(0.100055 -2.07884e-05 0)
(0.100083 -1.70333e-05 0)
(0.100103 -7.51933e-06 0)
(0.100107 6.45804e-06 0)
(0.100091 2.26531e-05 0)
(0.100056 3.84579e-05 0)
(0.100005 5.16401e-05 0)
(0.0999402 6.08569e-05 0)
(0.0998689 6.57865e-05 0)
(0.0997955 6.69299e-05 0)
(0.0997239 6.52442e-05 0)
(0.0996566 6.17826e-05 0)
(0.0995949 5.74401e-05 0)
(0.0995392 5.28406e-05 0)
(0.0994894 4.83316e-05 0)
(0.0994451 4.40406e-05 0)
(0.099406 3.99552e-05 0)
(0.0993717 3.59916e-05 0)
(0.0993421 3.2045e-05 0)
(0.0993169 2.80187e-05 0)
(0.0992962 2.38376e-05 0)
(0.0992799 1.94508e-05 0)
(0.0992681 1.48279e-05 0)
(0.0992607 9.95422e-06 0)
(0.0992579 4.82814e-06 0)
(0.0992597 -5.44442e-07 0)
(0.0992661 -6.15209e-06 0)
(0.099277 -1.19786e-05 0)
(0.0992925 -1.80059e-05 0)
(0.0993125 -2.42103e-05 0)
(0.0993369 -3.05637e-05 0)
(0.0993658 -3.70339e-05 0)
(0.0993988 -4.3583e-05 0)
(0.099436 -5.01655e-05 0)
(0.0994771 -5.67286e-05 0)
(0.0995219 -6.32097e-05 0)
(0.0995702 -6.95379e-05 0)
(0.0996218 -7.56303e-05 0)
(0.0996762 -8.13924e-05 0)
(0.0997332 -8.67164e-05 0)
(0.0997922 -9.14802e-05 0)
(0.0998529 -9.55457e-05 0)
(0.0999147 -9.87569e-05 0)
(0.0999771 -0.000100939 0)
(0.100039 -0.000101893 0)
(0.100101 -0.000101397 0)
(0.10016 -9.92006e-05 0)
(0.100217 -9.50176e-05 0)
(0.100271 -8.85241e-05 0)
(0.10032 -7.93504e-05 0)
(0.100363 -6.70722e-05 0)
(0.1004 -5.11997e-05 0)
(0.100427 -3.11644e-05 0)
(0.100444 -6.30117e-06 0)
(0.10045 2.41679e-05 0)
(0.100441 6.11643e-05 0)
(0.100416 0.000105785 0)
(0.100372 0.00015935 0)
(0.100307 0.000223457 0)
(0.100217 0.000300055 0)
(0.100098 0.000391546 0)
(0.0999457 0.00050091 0)
(0.099756 0.000631889 0)
(0.0995229 0.000789219 0)
(0.0992398 0.000978957 0)
(0.0988992 0.00120894 0)
(0.0984924 0.00148939 0)
(0.0980097 0.00183381 0)
(0.0974399 0.00226017 0)
(0.0967712 0.00279252 0)
(0.0959915 0.0034632 0)
(0.0950908 0.00431549 0)
(0.0940639 0.00540637 0)
(0.0929183 0.00680802 0)
(0.091685 0.00860412 0)
(0.0904374 0.0108722 0)
(0.0893164 0.013635 0)
(0.08856 0.0167384 0)
(0.0884698 0.0195761 0)
(0.100005 -1.48368e-05 0)
(0.100026 -2.47484e-05 0)
(0.100055 -2.78089e-05 0)
(0.100084 -2.29781e-05 0)
(0.100104 -1.05056e-05 0)
(0.10011 7.91857e-06 0)
(0.100097 2.9345e-05 0)
(0.100064 5.03348e-05 0)
(0.100015 6.79264e-05 0)
(0.0999524 8.03197e-05 0)
(0.0998828 8.70592e-05 0)
(0.0998106 8.87781e-05 0)
(0.0997397 8.67233e-05 0)
(0.0996727 8.22761e-05 0)
(0.0996109 7.66213e-05 0)
(0.0995548 7.05903e-05 0)
(0.0995045 6.46515e-05 0)
(0.0994597 5.89854e-05 0)
(0.0994199 5.35839e-05 0)
(0.099385 4.83435e-05 0)
(0.0993546 4.31299e-05 0)
(0.0993286 3.78187e-05 0)
(0.0993071 3.23125e-05 0)
(0.0992898 2.65442e-05 0)
(0.099277 2.04738e-05 0)
(0.0992685 1.40827e-05 0)
(0.0992644 7.36832e-06 0)
(0.0992647 3.39216e-07 0)
(0.0992695 -6.98997e-06 0)
(0.0992786 -1.45977e-05 0)
(0.0992921 -2.24582e-05 0)
(0.0993099 -3.05401e-05 0)
(0.0993319 -3.88066e-05 0)
(0.0993581 -4.72137e-05 0)
(0.0993882 -5.57105e-05 0)
(0.0994222 -6.4236e-05 0)
(0.0994599 -7.27204e-05 0)
(0.0995011 -8.10801e-05 0)
(0.0995455 -8.92206e-05 0)
(0.0995928 -9.70321e-05 0)
(0.0996426 -0.000104389 0)
(0.0996948 -0.000111149 0)
(0.0997487 -0.000117151 0)
(0.099804 -0.000122212 0)
(0.0998601 -0.000126127 0)
(0.0999164 -0.000128665 0)
(0.0999724 -0.000129568 0)
(0.100027 -0.000128542 0)
(0.10008 -0.000125258 0)
(0.10013 -0.000119345 0)
(0.100177 -0.000110379 0)
(0.100219 -9.78803e-05 0)
(0.100254 -8.12977e-05 0)
(0.100283 -5.99982e-05 0)
(0.100303 -3.3249e-05 0)
(0.100314 -1.96908e-07 0)
(0.100312 4.01508e-05 0)
(0.100297 8.89637e-05 0)
(0.100267 0.00014763 0)
(0.100218 0.000217805 0)
(0.10015 0.000301481 0)
(0.100058 0.000401066 0)
(0.0999398 0.000519497 0)
(0.0997921 0.000660379 0)
(0.0996108 0.000828176 0)
(0.0993916 0.00102845 0)
(0.09913 0.00126818 0)
(0.0988209 0.0015562 0)
(0.0984591 0.00190372 0)
(0.0980395 0.00232511 0)
(0.0975574 0.0028387 0)
(0.0970098 0.00346797 0)
(0.0963967 0.00424263 0)
(0.0957236 0.00519961 0)
(0.0950061 0.00638306 0)
(0.0942749 0.00784164 0)
(0.0935849 0.0096198 0)
(0.0930229 0.0117369 0)
(0.092712 0.014145 0)
(0.0927964 0.0166561 0)
(0.0933654 0.0188456 0)
(0.100005 -1.86734e-05 0)
(0.100026 -3.13744e-05 0)
(0.100055 -3.54191e-05 0)
(0.100084 -2.95825e-05 0)
(0.100106 -1.4125e-05 0)
(0.100114 8.8763e-06 0)
(0.100103 3.57592e-05 0)
(0.100074 6.2229e-05 0)
(0.100028 8.45582e-05 0)
(0.0999685 0.00010045 0)
(0.0999012 0.000109279 0)
(0.0998308 0.00011179 0)
(0.0997609 0.000109511 0)
(0.0996943 0.000104155 0)
(0.0996326 9.72092e-05 0)
(0.0995762 8.9726e-05 0)
(0.0995254 8.23105e-05 0)
(0.0994799 7.52071e-05 0)
(0.0994395 6.84215e-05 0)
(0.0994038 6.18359e-05 0)
(0.0993727 5.52907e-05 0)
(0.0993459 4.86353e-05 0)
(0.0993234 4.17498e-05 0)
(0.0993052 3.45514e-05 0)
(0.0992912 2.69909e-05 0)
(0.0992815 1.90452e-05 0)
(0.099276 1.0711e-05 0)
(0.0992747 1.99838e-06 0)
(0.0992777 -7.07268e-06 0)
(0.0992848 -1.64756e-05 0)
(0.0992961 -2.61766e-05 0)
(0.0993114 -3.61356e-05 0)
(0.0993307 -4.63056e-05 0)
(0.0993538 -5.66306e-05 0)
(0.0993807 -6.70447e-05 0)
(0.0994111 -7.74714e-05 0)
(0.0994449 -8.78205e-05 0)
(0.0994819 -9.79879e-05 0)
(0.0995217 -0.000107854 0)
(0.0995641 -0.000117279 0)
(0.0996087 -0.000126106 0)
(0.0996553 -0.000134157 0)
(0.0997033 -0.000141229 0)
(0.0997523 -0.000147094 0)
(0.0998018 -0.000151496 0)
(0.0998513 -0.000154148 0)
(0.0999 -0.000154727 0)
(0.0999473 -0.000152871 0)
(0.0999924 -0.000148173 0)
(0.100035 -0.000140173 0)
(0.100073 -0.000128351 0)
(0.100106 -0.000112118 0)
(0.100134 -9.08006e-05 0)
(0.100154 -6.36294e-05 0)
(0.100167 -2.97157e-05 0)
(0.100169 1.19654e-05 0)
(0.10016 6.26023e-05 0)
(0.100139 0.000123586 0)
(0.100103 0.000196554 0)
(0.10005 0.000283445 0)
(0.0999788 0.000386565 0)
(0.0998868 0.000508674 0)
(0.0997717 0.000653093 0)
(0.0996308 0.00082384 0)
(0.0994615 0.0010258 0)
(0.0992611 0.00126495 0)
(0.0990269 0.00154859 0)
(0.0987565 0.00188574 0)
(0.0984481 0.00228746 0)
(0.0981008 0.00276735 0)
(0.0977157 0.00334202 0)
(0.0972966 0.00403152 0)
(0.0968519 0.00485953 0)
(0.0963968 0.00585292 0)
(0.0959563 0.00704005 0)
(0.0955687 0.00844646 0)
(0.0952889 0.010086 0)
(0.0951891 0.0119446 0)
(0.0953525 0.0139547 0)
(0.0958509 0.0159624 0)
(0.0966915 0.0177053 0)
(0.100005 -2.27407e-05 0)
(0.100026 -3.8477e-05 0)
(0.100055 -4.36884e-05 0)
(0.100085 -3.6968e-05 0)
(0.100108 -1.85624e-05 0)
(0.100119 9.0845e-06 0)
(0.100112 4.16046e-05 0)
(0.100086 7.38334e-05 0)
(0.100044 0.000101247 0)
(0.0999883 0.000121006 0)
(0.0999241 0.000132272 0)
(0.0998559 0.000135866 0)
(0.0997875 0.000133575 0)
(0.0997217 0.000127445 0)
(0.0996601 0.00011927 0)
(0.0996036 0.00011034 0)
(0.0995523 0.000101414 0)
(0.0995063 9.28158e-05 0)
(0.0994652 8.45774e-05 0)
(0.0994288 7.65757e-05 0)
(0.0993968 6.86319e-05 0)
(0.0993693 6.05715e-05 0)
(0.0993459 5.22541e-05 0)
(0.0993267 4.3582e-05 0)
(0.0993115 3.44962e-05 0)
(0.0993005 2.49691e-05 0)
(0.0992935 1.49967e-05 0)
(0.0992906 4.59086e-06 0)
(0.0992917 -6.22324e-06 0)
(0.0992967 -1.74126e-05 0)
(0.0993056 -2.89354e-05 0)
(0.0993182 -4.07417e-05 0)
(0.0993346 -5.27735e-05 0)
(0.0993545 -6.4961e-05 0)
(0.0993778 -7.72232e-05 0)
(0.0994043 -8.94654e-05 0)
(0.0994338 -0.000101577 0)
(0.0994661 -0.000113431 0)
(0.0995009 -0.000124881 0)
(0.099538 -0.000135758 0)
(0.0995769 -0.000145872 0)
(0.0996173 -0.000155007 0)
(0.0996588 -0.000162917 0)
(0.0997009 -0.00016933 0)
(0.0997432 -0.000173936 0)
(0.099785 -0.000176393 0)
(0.0998258 -0.000176315 0)
(0.0998649 -0.00017327 0)
(0.0999016 -0.000166775 0)
(0.0999351 -0.000156285 0)
(0.0999646 -0.00014119 0)
(0.0999891 -0.000120795 0)
(0.100008 -9.4315e-05 0)
(0.10002 -6.08555e-05 0)
(0.100023 -1.93909e-05 0)
(0.100018 3.12528e-05 0)
(0.100002 9.2426e-05 0)
(0.0999739 0.0001657 0)
(0.0999327 0.000252906 0)
(0.0998768 0.000356185 0)
(0.0998045 0.000478054 0)
(0.0997142 0.000621485 0)
(0.0996043 0.000789994 0)
(0.0994733 0.000987757 0)
(0.0993197 0.00121975 0)
(0.0991424 0.00149189 0)
(0.0989406 0.00181124 0)
(0.0987142 0.00218619 0)
(0.0984644 0.00262666 0)
(0.0981937 0.00314429 0)
(0.0979072 0.0037525 0)
(0.0976131 0.00446641 0)
(0.0973243 0.00530239 0)
(0.0970597 0.0062769 0)
(0.0968458 0.00740429 0)
(0.0967179 0.00869276 0)
(0.0967203 0.0101378 0)
(0.0969035 0.0117123 0)
(0.0973161 0.0133541 0)
(0.0979875 0.0149552 0)
(0.0988999 0.0163617 0)
(0.100005 -2.70527e-05 0)
(0.100025 -4.60889e-05 0)
(0.100055 -5.26889e-05 0)
(0.100086 -4.52636e-05 0)
(0.100111 -2.40189e-05 0)
(0.100124 8.26898e-06 0)
(0.100121 4.65506e-05 0)
(0.1001 8.47939e-05 0)
(0.100063 0.000117651 0)
(0.100011 0.000141692 0)
(0.099951 0.000155811 0)
(0.0998857 0.000160857 0)
(0.0998192 0.000158845 0)
(0.0997545 0.00015214 0)
(0.0996933 0.000142845 0)
(0.0996368 0.000132506 0)
(0.0995852 0.000122054 0)
(0.0995386 0.00011191 0)
(0.0994969 0.000102151 0)
(0.0994598 9.26608e-05 0)
(0.0994271 8.32486e-05 0)
(0.0993987 7.37212e-05 0)
(0.0993745 6.3921e-05 0)
(0.0993543 5.37356e-05 0)
(0.0993381 4.30965e-05 0)
(0.0993258 3.1972e-05 0)
(0.0993173 2.03564e-05 0)
(0.0993127 8.26518e-06 0)
(0.0993118 -4.27281e-06 0)
(0.0993147 -1.72165e-05 0)
(0.0993211 -3.05156e-05 0)
(0.099331 -4.41097e-05 0)
(0.0993442 -5.79275e-05 0)
(0.0993607 -7.18853e-05 0)
(0.0993802 -8.58852e-05 0)
(0.0994026 -9.98132e-05 0)
(0.0994276 -0.000113538 0)
(0.099455 -0.000126907 0)
(0.0994845 -0.000139747 0)
(0.0995158 -0.000151859 0)
(0.0995486 -0.000163017 0)
(0.0995825 -0.000172967 0)
(0.0996171 -0.000181423 0)
(0.0996519 -0.000188064 0)
(0.0996865 -0.000192533 0)
(0.0997203 -0.000194429 0)
(0.0997527 -0.000193306 0)
(0.0997831 -0.000188666 0)
(0.099811 -0.000179954 0)
(0.0998354 -0.000166547 0)
(0.0998558 -0.000147749 0)
(0.0998713 -0.000122776 0)
(0.099881 -9.07425e-05 0)
(0.099884 -5.06487e-05 0)
(0.0998794 -1.35827e-06 0)
(0.0998663 5.84156e-05 0)
(0.0998435 0.000130147 0)
(0.0998101 0.000215528 0)
(0.0997649 0.00031651 0)
(0.099707 0.000435341 0)
(0.0996352 0.000574625 0)
(0.0995488 0.000737381 0)
(0.0994467 0.000927116 0)
(0.0993285 0.0011479 0)
(0.0991939 0.00140445 0)
(0.099043 0.00170224 0)
(0.0988769 0.00204754 0)
(0.0986973 0.00244753 0)
(0.0985075 0.00291032 0)
(0.0983122 0.00344486 0)
(0.0981189 0.00406079 0)
(0.0979378 0.00476806 0)
(0.0977827 0.00557614 0)
(0.0976722 0.00649284 0)
(0.0976293 0.00752233 0)
(0.097682 0.00866225 0)
(0.0978617 0.00989973 0)
(0.0981997 0.0112065 0)
(0.0987211 0.0125343 0)
(0.0994347 0.0138122 0)
(0.100319 0.0149527 0)
(0.100004 -3.16222e-05 0)
(0.100025 -5.42416e-05 0)
(0.100055 -6.2491e-05 0)
(0.100087 -5.4598e-05 0)
(0.100114 -3.06985e-05 0)
(0.10013 6.147e-06 0)
(0.100131 5.02492e-05 0)
(0.100115 9.47268e-05 0)
(0.100083 0.000133389 0)
(0.100037 0.000162167 0)
(0.0999811 0.000179622 0)
(0.0999192 0.000186568 0)
(0.0998551 0.000185206 0)
(0.0997919 0.000178192 0)
(0.0997314 0.000167943 0)
(0.099675 0.000156269 0)
(0.0996233 0.000144297 0)
(0.0995763 0.000132571 0)
(0.099534 0.000121229 0)
(0.0994964 0.000110178 0)
(0.0994631 9.92268e-05 0)
(0.099434 8.81714e-05 0)
(0.0994089 7.68392e-05 0)
(0.0993878 6.51057e-05 0)
(0.0993705 5.28941e-05 0)
(0.0993569 4.01672e-05 0)
(0.099347 2.69191e-05 0)
(0.0993407 1.31676e-05 0)
(0.0993379 -1.05304e-06 0)
(0.0993385 -1.56943e-05 0)
(0.0993423 -3.06961e-05 0)
(0.0993494 -4.59861e-05 0)
(0.0993595 -6.14798e-05 0)
(0.0993724 -7.70784e-05 0)
(0.099388 -9.26646e-05 0)
(0.0994061 -0.000108105 0)
(0.0994264 -0.000123245 0)
(0.0994487 -0.000137908 0)
(0.0994727 -0.000151891 0)
(0.099498 -0.000164965 0)
(0.0995245 -0.000176869 0)
(0.0995516 -0.00018731 0)
(0.099579 -0.000195963 0)
(0.0996063 -0.000202461 0)
(0.0996329 -0.000206398 0)
(0.0996584 -0.00020732 0)
(0.0996823 -0.000204725 0)
(0.0997039 -0.000198055 0)
(0.0997227 -0.000186689 0)
(0.0997381 -0.000169937 0)
(0.0997494 -0.000147029 0)
(0.0997559 -0.000117105 0)
(0.0997568 -7.92037e-05 0)
(0.0997515 -3.22449e-05 0)
(0.0997392 2.49821e-05 0)
(0.0997191 9.38373e-05 0)
(0.0996905 0.000175864 0)
(0.0996526 0.00027281 0)
(0.0996049 0.000386656 0)
(0.0995466 0.000519653 0)
(0.0994774 0.000674358 0)
(0.0993968 0.000853674 0)
(0.099305 0.00106089 0)
(0.099202 0.00129973 0)
(0.0990887 0.00157438 0)
(0.0989664 0.00188951 0)
(0.0988372 0.00225027 0)
(0.0987043 0.00266228 0)
(0.098572 0.00313148 0)
(0.0984465 0.00366401 0)
(0.0983357 0.00426585 0)
(0.0982498 0.00494238 0)
(0.0982018 0.00569761 0)
(0.0982071 0.00653324 0)
(0.0982838 0.00744722 0)
(0.0984516 0.00843212 0)
(0.0987306 0.00947307 0)
(0.0991386 0.0105459 0)
(0.0996868 0.0116159 0)
(0.100375 0.0126388 0)
(0.101186 0.0135648 0)
(0.100004 -3.64594e-05 0)
(0.100025 -6.29603e-05 0)
(0.100055 -7.31553e-05 0)
(0.100087 -6.50863e-05 0)
(0.100116 -3.87891e-05 0)
(0.100136 2.45074e-06 0)
(0.100141 5.23629e-05 0)
(0.100131 0.000103249 0)
(0.100105 0.000148069 0)
(0.100064 0.000182066 0)
(0.100013 0.000203395 0)
(0.099955 0.000212762 0)
(0.0998938 0.000212494 0)
(0.0998325 0.000205509 0)
(0.0997731 0.000194528 0)
(0.0997172 0.00018164 0)
(0.0996655 0.000168185 0)
(0.0996183 0.000154856 0)
(0.0995757 0.000141879 0)
(0.0995375 0.000129201 0)
(0.0995037 0.000116646 0)
(0.0994739 0.000104005 0)
(0.0994481 9.10973e-05 0)
(0.0994261 7.77892e-05 0)
(0.0994077 6.39956e-05 0)
(0.0993929 4.96753e-05 0)
(0.0993816 3.4822e-05 0)
(0.0993735 1.94555e-05 0)
(0.0993688 3.61648e-06 0)
(0.0993671 -1.26393e-05 0)
(0.0993684 -2.92405e-05 0)
(0.0993725 -4.61008e-05 0)
(0.0993793 -6.31248e-05 0)
(0.0993886 -8.01956e-05 0)
(0.0994001 -9.71755e-05 0)
(0.0994138 -0.00011391 0)
(0.0994293 -0.000130222 0)
(0.0994463 -0.000145908 0)
(0.0994646 -0.000160738 0)
(0.0994839 -0.000174449 0)
(0.0995038 -0.00018675 0)
(0.099524 -0.00019731 0)
(0.0995441 -0.000205763 0)
(0.0995637 -0.000211702 0)
(0.0995823 -0.000214674 0)
(0.0995995 -0.000214179 0)
(0.0996148 -0.000209665 0)
(0.0996277 -0.000200521 0)
(0.0996377 -0.000186073 0)
(0.0996442 -0.000165574 0)
(0.0996467 -0.000138199 0)
(0.0996446 -0.000103036 0)
(0.0996373 -5.90702e-05 0)
(0.0996243 -5.17581e-06 0)
(0.099605 5.98895e-05 0)
(0.099579 0.000137514 0)
(0.0995458 0.000229249 0)
(0.0995049 0.000336821 0)
(0.0994561 0.000462153 0)
(0.0993993 0.000607389 0)
(0.0993344 0.000774909 0)
(0.0992618 0.00096735 0)
(0.099182 0.00118762 0)
(0.0990959 0.00143889 0)
(0.0990052 0.00172462 0)
(0.0989118 0.00204848 0)
(0.0988187 0.00241433 0)
(0.0987297 0.00282611 0)
(0.0986496 0.00328766 0)
(0.0985846 0.00380254 0)
(0.0985423 0.00437367 0)
(0.0985319 0.00500293 0)
(0.0985638 0.00569058 0)
(0.0986499 0.00643461 0)
(0.098803 0.00722996 0)
(0.099036 0.00806766 0)
(0.0993607 0.00893407 0)
(0.0997861 0.00981043 0)
(0.100316 0.010673 0)
(0.100948 0.0114943 0)
(0.101667 0.0122461 0)
(0.100004 -4.15708e-05 0)
(0.100024 -7.22621e-05 0)
(0.100054 -8.47254e-05 0)
(0.100088 -7.6816e-05 0)
(0.100118 -4.84403e-05 0)
(0.100141 -3.04231e-06 0)
(0.100151 5.25993e-05 0)
(0.100146 0.000110018 0)
(0.100126 0.000161322 0)
(0.100091 0.000201027 0)
(0.100045 0.000226803 0)
(0.0999915 0.000239168 0)
(0.0999337 0.000240504 0)
(0.0998746 0.000233952 0)
(0.0998168 0.000222522 0)
(0.0997617 0.000208585 0)
(0.0997103 0.000193722 0)
(0.0996631 0.000178798 0)
(0.0996203 0.000164152 0)
(0.0995818 0.000149797 0)
(0.0995475 0.000135581 0)
(0.0995172 0.000121307 0)
(0.0994906 0.000106792 0)
(0.0994677 9.1895e-05 0)
(0.0994483 7.6525e-05 0)
(0.0994323 6.06378e-05 0)
(0.0994194 4.42265e-05 0)
(0.0994097 2.73143e-05 0)
(0.0994028 9.94687e-06 0)
(0.0993988 -7.81083e-06 0)
(0.0993974 -2.58762e-05 0)
(0.0993986 -4.41479e-05 0)
(0.099402 -6.25188e-05 0)
(0.0994075 -8.08523e-05 0)
(0.0994149 -9.89904e-05 0)
(0.099424 -0.000116758 0)
(0.0994345 -0.000133952 0)
(0.0994462 -0.000150345 0)
(0.0994587 -0.000165677 0)
(0.0994718 -0.000179658 0)
(0.0994851 -0.000191962 0)
(0.0994984 -0.000202225 0)
(0.0995111 -0.000210046 0)
(0.099523 -0.000214978 0)
(0.0995336 -0.000216531 0)
(0.0995426 -0.000214165 0)
(0.0995495 -0.000207285 0)
(0.0995539 -0.000195241 0)
(0.0995553 -0.000177318 0)
(0.0995534 -0.000152731 0)
(0.0995476 -0.000120623 0)
(0.0995375 -8.00498e-05 0)
(0.0995228 -2.99779e-05 0)
(0.099503 3.07218e-05 0)
(0.0994779 0.000103286 0)
(0.0994471 0.000189077 0)
(0.0994106 0.000289589 0)
(0.0993682 0.000406451 0)
(0.0993199 0.000541447 0)
(0.0992661 0.000696513 0)
(0.0992072 0.000873744 0)
(0.0991439 0.00107539 0)
(0.0990773 0.00130386 0)
(0.0990089 0.00156166 0)
(0.0989406 0.00185141 0)
(0.098875 0.00217572 0)
(0.0988152 0.00253718 0)
(0.0987652 0.00293814 0)
(0.0987296 0.00338065 0)
(0.0987143 0.00386618 0)
(0.0987255 0.00439537 0)
(0.0987707 0.00496777 0)
(0.0988579 0.00558141 0)
(0.0989955 0.0062325 0)
(0.0991917 0.00691501 0)
(0.0994545 0.0076204 0)
(0.09979 0.00833743 0)
(0.100202 0.00905231 0)
(0.100692 0.00974914 0)
(0.101254 0.010411 0)
(0.10188 0.0110216 0)
(0.100004 -4.69585e-05 0)
(0.100024 -8.21525e-05 0)
(0.100054 -9.7221e-05 0)
(0.100088 -8.98341e-05 0)
(0.10012 -5.97429e-05 0)
(0.100145 -1.04802e-05 0)
(0.100159 5.07467e-05 0)
(0.10016 0.000114761 0)
(0.100145 0.000172838 0)
(0.100116 0.000218722 0)
(0.100076 0.000249529 0)
(0.100027 0.000265498 0)
(0.0999727 0.000268998 0)
(0.0999164 0.000263338 0)
(0.0998604 0.000251794 0)
(0.0998065 0.000237028 0)
(0.0997558 0.000220874 0)
(0.0997089 0.0002044 0)
(0.0996661 0.000188083 0)
(0.0996274 0.000172021 0)
(0.0995927 0.000156111 0)
(0.0995618 0.000140176 0)
(0.0995346 0.000124039 0)
(0.0995108 0.000107558 0)
(0.0994903 9.06377e-05 0)
(0.099473 7.32329e-05 0)
(0.0994586 5.53366e-05 0)
(0.099447 3.69752e-05 0)
(0.099438 1.82002e-05 0)
(0.0994315 -9.14432e-07 0)
(0.0994273 -2.02763e-05 0)
(0.0994253 -3.97753e-05 0)
(0.0994252 -5.92678e-05 0)
(0.0994268 -7.86053e-05 0)
(0.0994299 -9.76199e-05 0)
(0.0994343 -0.000116113 0)
(0.0994398 -0.000133857 0)
(0.0994459 -0.000150597 0)
(0.0994526 -0.000166049 0)
(0.0994594 -0.000179892 0)
(0.0994661 -0.00019177 0)
(0.0994723 -0.000201292 0)
(0.0994777 -0.000208024 0)
(0.099482 -0.00021149 0)
(0.0994848 -0.000211166 0)
(0.0994858 -0.000206482 0)
(0.0994846 -0.000196816 0)
(0.0994808 -0.000181489 0)
(0.0994741 -0.000159764 0)
(0.0994643 -0.000130841 0)
(0.0994509 -9.38493e-05 0)
(0.0994336 -4.78475e-05 0)
(0.0994124 8.1823e-06 0)
(0.0993869 7.53341e-05 0)
(0.0993571 0.000154797 0)
(0.0993229 0.000247852 0)
(0.0992844 0.000355874 0)
(0.0992418 0.000480334 0)
(0.0991955 0.000622797 0)
(0.099146 0.000784916 0)
(0.0990942 0.000968426 0)
(0.0990411 0.00117512 0)
(0.0989881 0.00140683 0)
(0.0989369 0.00166537 0)
(0.0988898 0.00195251 0)
(0.0988493 0.00226988 0)
(0.0988185 0.00261891 0)
(0.0988013 0.00300067 0)
(0.0988016 0.00341576 0)
(0.0988243 0.00386418 0)
(0.0988745 0.00434509 0)
(0.0989577 0.00485668 0)
(0.0990795 0.00539594 0)
(0.0992454 0.00595854 0)
(0.0994606 0.00653868 0)
(0.0997293 0.00712906 0)
(0.100054 0.00772098 0)
(0.100437 0.00830459 0)
(0.100876 0.00886934 0)
(0.101368 0.0094047 0)
(0.101906 0.00990115 0)
(0.100004 -5.26189e-05 0)
(0.100024 -9.26221e-05 0)
(0.100053 -0.000110632 0)
(0.100087 -0.000104138 0)
(0.10012 -7.27136e-05 0)
(0.100148 -1.99166e-05 0)
(0.100166 4.67009e-05 0)
(0.100171 0.000117319 0)
(0.100162 0.0001824 0)
(0.100138 0.000234893 0)
(0.100103 0.000271292 0)
(0.100059 0.000291477 0)
(0.100009 0.000297721 0)
(0.0999557 0.000293449 0)
(0.0999019 0.000282177 0)
(0.0998496 0.00026685 0)
(0.0997999 0.000249575 0)
(0.0997535 0.000231641 0)
(0.0997109 0.00021369 0)
(0.0996721 0.000195929 0)
(0.0996371 0.000178323 0)
(0.0996058 0.000160729 0)
(0.0995779 0.000142984 0)
(0.0995532 0.000124951 0)
(0.0995315 0.000106536 0)
(0.0995128 8.76926e-05 0)
(0.0994967 6.84155e-05 0)
(0.0994831 4.87349e-05 0)
(0.0994718 2.87089e-05 0)
(0.0994627 8.42101e-06 0)
(0.0994556 -1.20245e-05 0)
(0.0994502 -3.25034e-05 0)
(0.0994464 -5.28545e-05 0)
(0.0994439 -7.29109e-05 0)
(0.0994426 -9.2486e-05 0)
(0.0994421 -0.000111358 0)
(0.0994423 -0.000129278 0)
(0.0994428 -0.000145969 0)
(0.0994434 -0.00016112 0)
(0.0994439 -0.000174387 0)
(0.0994439 -0.000185389 0)
(0.0994431 -0.000193709 0)
(0.0994413 -0.00019889 0)
(0.0994382 -0.000200432 0)
(0.0994334 -0.000197791 0)
(0.0994266 -0.000190377 0)
(0.0994177 -0.000177554 0)
(0.0994062 -0.000158633 0)
(0.0993921 -0.000132875 0)
(0.0993749 -9.94831e-05 0)
(0.0993547 -5.7606e-05 0)
(0.0993313 -6.33292e-06 0)
(0.0993045 5.52985e-05 0)
(0.0992743 0.000128319 0)
(0.0992409 0.000213822 0)
(0.0992045 0.000312959 0)
(0.0991653 0.000426937 0)
(0.0991237 0.000557012 0)
(0.0990804 0.000704481 0)
(0.0990361 0.000870667 0)
(0.098992 0.0010569 0)
(0.0989492 0.00126449 0)
(0.0989093 0.00149469 0)
(0.0988741 0.00174866 0)
(0.0988457 0.00202741 0)
(0.0988267 0.00233171 0)
(0.09882 0.00266206 0)
(0.0988285 0.00301855 0)
(0.0988559 0.00340082 0)
(0.0989057 0.00380789 0)
(0.0989818 0.00423812 0)
(0.0990881 0.00468909 0)
(0.0992282 0.00515753 0)
(0.0994056 0.00563927 0)
(0.0996231 0.00612928 0)
(0.0998827 0.00662171 0)
(0.100185 0.00711006 0)
(0.100531 0.0075874 0)
(0.100918 0.00804671 0)
(0.101343 0.00848136 0)
(0.101801 0.00888566 0)
(0.100003 -5.85423e-05 0)
(0.100023 -0.000103646 0)
(0.100052 -0.000124918 0)
(0.100086 -0.000119672 0)
(0.10012 -8.72913e-05 0)
(0.100149 -3.13012e-05 0)
(0.10017 4.04795e-05 0)
(0.100179 0.000117655 0)
(0.100174 0.000189908 0)
(0.100156 0.000249376 0)
(0.100126 0.000291879 0)
(0.100087 0.00031686 0)
(0.100041 0.000326425 0)
(0.0999908 0.000324056 0)
(0.0999396 0.000313477 0)
(0.0998892 0.000297907 0)
(0.0998407 0.000279731 0)
(0.0997952 0.000260481 0)
(0.0997529 0.000240985 0)
(0.0997142 0.000221583 0)
(0.099679 0.000202323 0)
(0.0996471 0.000183111 0)
(0.0996184 0.000163811 0)
(0.0995928 0.000144296 0)
(0.0995698 0.000124479 0)
(0.0995495 0.000104314 0)
(0.0995316 8.37998e-05 0)
(0.0995158 6.29698e-05 0)
(0.099502 4.18904e-05 0)
(0.0994901 2.06549e-05 0)
(0.0994797 -6.1738e-07 0)
(0.0994708 -2.1784e-05 0)
(0.099463 -4.26866e-05 0)
(0.0994562 -6.31351e-05 0)
(0.0994502 -8.29127e-05 0)
(0.0994447 -0.000101779 0)
(0.0994394 -0.000119467 0)
(0.0994342 -0.00013568 0)
(0.0994288 -0.000150085 0)
(0.0994228 -0.000162319 0)
(0.0994162 -0.000171984 0)
(0.0994085 -0.00017864 0)
(0.0993996 -0.000181817 0)
(0.0993891 -0.000181001 0)
(0.099377 -0.00017564 0)
(0.0993629 -0.00016514 0)
(0.0993466 -0.000148864 0)
(0.0993281 -0.000126134 0)
(0.0993071 -9.62265e-05 0)
(0.0992835 -5.83765e-05 0)
(0.0992573 -1.17758e-05 0)
(0.0992285 4.44182e-05 0)
(0.0991971 0.000111094 0)
(0.0991634 0.000189179 0)
(0.0991275 0.000279631 0)
(0.0990899 0.000383437 0)
(0.0990509 0.000501597 0)
(0.0990112 0.000635122 0)
(0.0989716 0.000785012 0)
(0.098933 0.000952241 0)
(0.0988965 0.00113773 0)
(0.0988634 0.00134233 0)
(0.0988353 0.00156677 0)
(0.098814 0.00181163 0)
(0.0988014 0.00207727 0)
(0.0987998 0.00236381 0)
(0.0988114 0.00267108 0)
(0.098839 0.00299852 0)
(0.098885 0.00334513 0)
(0.0989523 0.00370947 0)
(0.0990434 0.00408954 0)
(0.099161 0.0044828 0)
(0.0993073 0.00488616 0)
(0.0994843 0.00529597 0)
(0.0996932 0.00570813 0)
(0.0999349 0.0061181 0)
(0.100209 0.00652114 0)
(0.100516 0.00691239 0)
(0.100852 0.00728716 0)
(0.101216 0.00764119 0)