/*--------------------------------*- C++ -*----------------------------------*\
| =========                 |                                                 |
| \\      /  F ield         | OpenFOAM: The Open Source CFD Toolbox           |
|  \\    /   O peration     | Version:  4.1                                   |
|   \\  /    A nd           | Web:      www.OpenFOAM.org                      |
|    \\/     M anipulation  |                                                 |
\*---------------------------------------------------------------------------*/
FoamFile
{
    version     2.0;
    format      ascii;
    class       volScalarField;
    location    "0.2";
    object      gradTx;
}
// * * * * * * * * * * * * * * * * * * * * * * * * * * * * * * * * * * * * * //

dimensions      [0 -1 0 1 0 0 0];

internalField   nonuniform List<scalar> 
512
(
0.00598048
0.0166927
0.0241952
0.0278431
0.0280854
0.0259503
0.0225223
0.0186422
0.0148952
0.0115545
0.00873667
0.00644584
0.00461785
0.00316094
0.00197852
0.000978047
7.26765e-05
-0.000820388
-0.00178249
-0.00289569
-0.00424284
-0.00590317
-0.00794012
-0.0103769
-0.0131562
-0.0160822
-0.0187563
-0.0205354
-0.0205763
-0.0180461
-0.0125317
-0.00450939
0.018257
0.0508877
0.0735701
0.0844036
0.0848774
0.0781978
0.0676995
0.0559158
0.0445932
0.0345424
0.0260897
0.0192314
0.0137674
0.00941843
0.00589268
0.0029118
0.000215316
-0.00244464
-0.00531163
-0.00863188
-0.0126551
-0.0176221
-0.0237293
-0.0310565
-0.0394456
-0.0483253
-0.0565093
-0.0620571
-0.062386
-0.0548944
-0.0382262
-0.0137778
0.0315188
0.0875938
0.125973
0.143623
0.143537
0.131476
0.113255
0.0931411
0.0740085
0.057163
0.0430777
0.0316961
0.0226578
0.015483
0.00967876
0.00477892
0.000349979
-0.00401934
-0.00873327
-0.0142023
-0.0208462
-0.0290765
-0.0392404
-0.0515045
-0.065653
-0.0807887
-0.0949708
-0.104932
-0.106193
-0.0940665
-0.0658784
-0.0238249
0.0465588
0.128768
0.183671
0.207398
0.205318
0.18643
0.159375
0.130231
0.10292
0.079151
0.0594448
0.0436202
0.0311146
0.0212267
0.0132526
0.00653595
0.000471775
-0.00551147
-0.0119759
-0.0194956
-0.0286655
-0.0400819
-0.0542718
-0.0715383
-0.0916818
-0.113567
-0.134569
-0.150061
-0.153415
-0.137303
-0.0970199
-0.0352758
0.0643964
0.176841
0.249324
0.277807
0.271481
0.243625
0.206152
0.167018
0.131051
0.100208
0.074918
0.0547766
0.038962
0.0265225
0.0165316
0.00814071
0.000576302
-0.00688824
-0.0149681
-0.0243997
-0.0359581
-0.0504423
-0.0685977
-0.0909328
-0.11737
-0.146675
-0.175658
-0.198334
-0.205601
-0.186655
-0.133573
-0.0489449
0.0864326
0.23501
0.326187
0.357169
0.343261
0.303487
0.253529
0.203215
0.158044
0.119989
0.0892012
0.0649297
0.0460229
0.0312454
0.0194358
0.00955281
0.000659733
-0.00811734
-0.0176395
-0.0288015
-0.0425635
-0.0599465
-0.08196
-0.109404
-0.142465
-0.180002
-0.218473
-0.250605
-0.264473
-0.244651
-0.178095
-0.0659661
0.114695
0.307681
0.418353
0.448079
0.421804
0.36622
0.301232
0.238377
0.183442
0.138093
0.101973
0.0738348
0.05212
0.0352736
0.0218889
0.0107343
0.000718857
-0.00916752
-0.0199212
-0.0325888
-0.0483168
-0.0683673
-0.094063
-0.126595
-0.166588
-0.213266
-0.263057
-0.30763
-0.331945
-0.31449
-0.234145
-0.0879982
0.15225
0.401136
0.531058
0.553387
0.508039
0.431685
0.348693
0.271853
0.206664
0.154057
0.112884
0.0812408
0.0570786
0.0384908
0.0238196
0.0116503
0.000751057
-0.0100093
-0.0217478
-0.0356515
-0.0530507
-0.0754627
-0.104571
-0.142065
-0.189216
-0.245956
-0.309171
-0.369953
-0.410092
-0.400272
-0.30683
-0.117571
0.203923
0.524604
0.671019
0.676087
0.602473
0.499246
0.394958
0.302746
0.226998
0.167356
0.121564
0.0868942
0.0607301
0.0407889
0.0251635
0.0122702
0.000754294
-0.0106161
-0.0230592
-0.0378858
-0.0565999
-0.0809802
-0.11311
-0.155285
-0.209646
-0.277261
-0.356162
-0.437728
-0.501028
-0.507257
-0.403698
-0.158699
0.277608
0.691997
0.846758
0.819006
0.704852
0.567563
0.4386
0.329888
0.243591
0.177406
0.127629
0.0905478
0.0629185
0.0420722
0.0258658
0.0125683
0.000727129
-0.0109651
-0.0238029
-0.0391973
-0.0588071
-0.0846651
-0.119279
-0.165638
-0.226986
-0.306012
-0.402801
-0.510421
-0.606607
-0.642068
-0.536188
-0.218004
0.386711
0.924767
1.06869
0.984161
0.813673
0.634362
0.477632
0.351825
0.255471
0.183591
0.130699
0.0919721
0.0635082
0.0422629
0.0258842
0.0125258
0.000668799
-0.0110389
-0.0239374
-0.0395071
-0.0595311
-0.0862725
-0.122661
-0.172439
-0.240151
-0.330623
-0.447099
-0.586396
-0.727831
-0.812681
-0.722051
-0.306834
0.554852
1.25668
1.34847
1.17155
0.92549
0.696168
0.509455
0.366832
0.261571
0.185282
0.130418
0.0909705
0.062394
0.0413062
0.0251921
0.012132
0.000579262
-0.0108265
-0.023435
-0.038757
-0.0586577
-0.0855842
-0.122853
-0.174962
-0.247891
-0.349066
-0.486111
-0.662339
-0.863756
-1.02772
-0.98942
-0.445365
0.825161
1.74188
1.69641
1.37712
1.03403
0.748074
0.530847
0.372969
0.26079
0.181886
0.12648
0.0873949
0.0595096
0.039176
0.023781
0.0113856
0.000459019
-0.0103251
-0.0222853
-0.0369167
-0.0561108
-0.0824283
-0.119495
-0.172496
-0.248853
-0.358906
-0.515801
-0.732572
-1.0097
-1.29399
-1.38372
-0.670731
1.27913
2.46856
2.11402
1.58969
1.12931
0.783637
0.538053
0.36818
0.252063
0.172889
0.118661
0.0811618
0.0548376
0.0358792
0.0216634
0.0102951
0.000308747
-0.00954143
-0.0204986
-0.0339892
-0.0518651
-0.0767021
-0.112314
-0.16441
-0.241686
-0.357429
-0.53105
-0.788386
-1.15462
-1.60971
-1.97941
-1.05352
2.07573
3.58241
2.5755
1.78756
1.19702
0.795092
0.527029
0.35047
0.234478
0.157928
0.106853
0.072272
0.0484193
0.0314609
0.0188743
0.00888058
0.000129231
-0.00849249
-0.0181081
-0.0300169
-0.0459578
-0.068395
-0.10117
-0.150248
-0.225206
-0.341898
-0.525943
-0.817729
-1.2782
-1.94777
-2.9
-1.73207
3.53427
5.32632
2.984
1.93763
1.21886
0.774084
0.493877
0.318157
0.207415
0.136868
0.0911086
0.0608306
0.0403668
0.0260094
0.0154744
0.00717514
-7.84137e-05
-0.00720584
-0.0151719
-0.0250844
-0.0384997
-0.0576091
-0.0860993
-0.129828
-0.1986
-0.309962
-0.494507
-0.805729
-1.35055
-2.21646
-4.35197
-2.9853
)
;

boundaryField
{
    left
    {
        type            calculated;
        value           uniform 0;
    }
    right
    {
        type            calculated;
        value           uniform 0;
    }
    interface
    {
        type            calculated;
        value           nonuniform List<scalar> 
32
(
3.53427
5.32632
2.984
1.93763
1.21886
0.774084
0.493877
0.318157
0.207415
0.136868
0.0911086
0.0608306
0.0403668
0.0260094
0.0154744
0.00717514
-7.84137e-05
-0.00720584
-0.0151719
-0.0250844
-0.0384997
-0.0576091
-0.0860993
-0.129828
-0.1986
-0.309962
-0.494507
-0.805729
-1.35055
-2.21646
-4.35197
-2.9853
)
;
    }
    bottom
    {
        type            calculated;
        value           nonuniform List<scalar> 
32
(
0.00598048
0.0166927
0.0241952
0.0278431
0.0280854
0.0259503
0.0225223
0.0186422
0.0148952
0.0115545
0.00873667
0.00644584
0.00461785
0.00316094
0.00197852
0.000978047
7.26765e-05
-0.000820388
-0.00178249
-0.00289569
-0.00424284
-0.00590317
-0.00794012
-0.0103769
-0.0131562
-0.0160822
-0.0187563
-0.0205354
-0.0205763
-0.0180461
-0.0125317
-0.00450939
)
;
    }
    defaultFaces
    {
        type            empty;
    }
}


// ************************************************************************* //
