/*--------------------------------*- C++ -*----------------------------------*\
| =========                 |                                                 |
| \\      /  F ield         | OpenFOAM: The Open Source CFD Toolbox           |
|  \\    /   O peration     | Version:  4.1                                   |
|   \\  /    A nd           | Web:      www.OpenFOAM.org                      |
|    \\/     M anipulation  |                                                 |
\*---------------------------------------------------------------------------*/
FoamFile
{
    version     2.0;
    format      ascii;
    class       surfaceScalarField;
    location    "0.2";
    object      phi;
}
// * * * * * * * * * * * * * * * * * * * * * * * * * * * * * * * * * * * * * //

dimensions      [1 0 -1 0 0 0 0];

internalField   nonuniform List<scalar> 
23692
(
2.32197e-06
5.02029e-09
2.31383e-06
8.13542e-09
2.30637e-06
7.46093e-09
2.30122e-06
5.15116e-09
2.29773e-06
3.49495e-09
2.29481e-06
2.91364e-09
2.29186e-06
2.95781e-09
2.28866e-06
3.19849e-09
2.28523e-06
3.43105e-09
2.28162e-06
3.60253e-09
2.2779e-06
3.72001e-09
2.2741e-06
3.8027e-09
2.27024e-06
3.86619e-09
2.26632e-06
3.92022e-09
2.26235e-06
3.96996e-09
2.25833e-06
4.01782e-09
2.25426e-06
4.06496e-09
2.25015e-06
4.11181e-09
2.246e-06
4.15844e-09
2.24179e-06
4.20434e-09
2.23755e-06
4.24878e-09
2.23326e-06
4.29077e-09
2.22893e-06
4.32924e-09
2.22457e-06
4.36307e-09
2.22019e-06
4.39136e-09
2.21578e-06
4.41341e-09
2.21136e-06
4.42875e-09
2.20694e-06
4.43706e-09
2.20251e-06
4.43831e-09
2.1981e-06
4.43276e-09
2.1937e-06
4.42094e-09
2.18932e-06
4.40366e-09
2.18497e-06
4.38169e-09
2.18064e-06
4.35608e-09
2.17636e-06
4.32783e-09
2.1721e-06
4.29808e-09
2.16789e-06
4.26793e-09
2.16371e-06
4.23829e-09
2.15956e-06
4.21008e-09
2.15546e-06
4.18414e-09
2.15138e-06
4.16126e-09
2.14733e-06
4.1421e-09
2.14331e-06
4.12718e-09
2.13931e-06
4.11698e-09
2.13532e-06
4.11181e-09
2.13135e-06
4.1119e-09
2.12738e-06
4.11748e-09
2.12341e-06
4.12869e-09
2.11944e-06
4.14577e-09
2.11546e-06
4.16901e-09
2.11146e-06
4.19875e-09
2.10744e-06
4.23564e-09
2.10339e-06
4.28053e-09
2.09929e-06
4.33475e-09
2.09515e-06
4.40002e-09
2.09094e-06
4.47869e-09
2.08664e-06
4.57394e-09
2.08225e-06
4.68976e-09
2.07772e-06
4.83124e-09
2.07303e-06
5.00491e-09
2.06814e-06
5.21906e-09
2.063e-06
5.48421e-09
2.05753e-06
5.81388e-09
2.05167e-06
6.2255e-09
2.0453e-06
6.74188e-09
2.03829e-06
7.39312e-09
2.03045e-06
8.21955e-09
2.02158e-06
9.27608e-09
2.01134e-06
1.06386e-08
1.99934e-06
1.24142e-08
1.985e-06
1.47565e-08
1.96754e-06
1.78905e-08
1.94582e-06
2.21518e-08
1.9182e-06
2.805e-08
1.88227e-06
3.63712e-08
1.83438e-06
4.83424e-08
1.76894e-06
6.58844e-08
1.67736e-06
9.2027e-08
1.54597e-06
1.31848e-07
1.35167e-06
1.94749e-07
3.05574e-07
1.04655e-06
2.48484e-06
1.01604e-08
2.47632e-06
1.66624e-08
2.46839e-06
1.5383e-08
2.46286e-06
1.06884e-08
2.45906e-06
7.29462e-09
2.45589e-06
6.08614e-09
2.45269e-06
6.1586e-09
2.44924e-06
6.63865e-09
2.44557e-06
7.10725e-09
2.44172e-06
7.45449e-09
2.43774e-06
7.69313e-09
2.43369e-06
7.86157e-09
2.42956e-06
7.99152e-09
2.42538e-06
8.1022e-09
2.42114e-06
8.20417e-09
2.41686e-06
8.30246e-09
2.41253e-06
8.39928e-09
2.40814e-06
8.49557e-09
2.40371e-06
8.59131e-09
2.39923e-06
8.68559e-09
2.39471e-06
8.77694e-09
2.39014e-06
8.86332e-09
2.38553e-06
8.94246e-09
2.38088e-06
9.01215e-09
2.37621e-06
9.07056e-09
2.37152e-06
9.11614e-09
2.36681e-06
9.14798e-09
2.36209e-06
9.16545e-09
2.35738e-06
9.16848e-09
2.35267e-06
9.1576e-09
2.34798e-06
9.13388e-09
2.34331e-06
9.09892e-09
2.33867e-06
9.05442e-09
2.33406e-06
9.00234e-09
2.32948e-06
8.94493e-09
2.32494e-06
8.88445e-09
2.32045e-06
8.82302e-09
2.31598e-06
8.76272e-09
2.31156e-06
8.70534e-09
2.30717e-06
8.65259e-09
2.30282e-06
8.6061e-09
2.29849e-06
8.56723e-09
2.2942e-06
8.5371e-09
2.28992e-06
8.51657e-09
2.28566e-06
8.5064e-09
2.28141e-06
8.50706e-09
2.27717e-06
8.51888e-09
2.27293e-06
8.54224e-09
2.26869e-06
8.57766e-09
2.26443e-06
8.62562e-09
2.26016e-06
8.68697e-09
2.25586e-06
8.76285e-09
2.25153e-06
8.85514e-09
2.24715e-06
8.9664e-09
2.24272e-06
9.10022e-09
2.23823e-06
9.2614e-09
2.23364e-06
9.45624e-09
2.22895e-06
9.69288e-09
2.22413e-06
9.98158e-09
2.21914e-06
1.03355e-08
2.21394e-06
1.07712e-08
2.20847e-06
1.13097e-08
2.20269e-06
1.19778e-08
2.19649e-06
1.28102e-08
2.18977e-06
1.38515e-08
2.18241e-06
1.51606e-08
2.17423e-06
1.68155e-08
2.16501e-06
1.89212e-08
2.15447e-06
2.16213e-08
2.14221e-06
2.51152e-08
2.12773e-06
2.96838e-08
2.11034e-06
3.57295e-08
2.08912e-06
4.38362e-08
2.06278e-06
5.486e-08
2.02955e-06
7.00624e-08
1.98708e-06
9.129e-08
1.93227e-06
1.21171e-07
1.86154e-06
1.6324e-07
1.77199e-06
2.21889e-07
1.66661e-06
3.00615e-07
3.89522e-07
1.58314e-06
2.65937e-06
1.51901e-08
2.65067e-06
2.53572e-08
2.64239e-06
2.36614e-08
2.63641e-06
1.66711e-08
2.63219e-06
1.1513e-08
2.62866e-06
9.61711e-09
2.62515e-06
9.66897e-09
2.62143e-06
1.03596e-08
2.61749e-06
1.10504e-08
2.61337e-06
1.1568e-08
2.60914e-06
1.19264e-08
2.60482e-06
1.21812e-08
2.60043e-06
1.23787e-08
2.59599e-06
1.25476e-08
2.59149e-06
1.27034e-08
2.58694e-06
1.28538e-08
2.58234e-06
1.3002e-08
2.57768e-06
1.31495e-08
2.57298e-06
1.32961e-08
2.56823e-06
1.34406e-08
2.56343e-06
1.35806e-08
2.55858e-06
1.37131e-08
2.55369e-06
1.38346e-08
2.54877e-06
1.39418e-08
2.54381e-06
1.40318e-08
2.53884e-06
1.41024e-08
2.53384e-06
1.41521e-08
2.52884e-06
1.418e-08
2.52384e-06
1.41858e-08
2.51885e-06
1.41705e-08
2.51387e-06
1.41357e-08
2.50891e-06
1.40836e-08
2.50398e-06
1.4017e-08
2.49908e-06
1.39389e-08
2.49422e-06
1.38525e-08
2.4894e-06
1.37614e-08
2.48461e-06
1.36689e-08
2.47986e-06
1.35779e-08
2.47515e-06
1.34914e-08
2.47048e-06
1.3412e-08
2.46584e-06
1.3342e-08
2.46123e-06
1.32836e-08
2.45665e-06
1.32385e-08
2.45209e-06
1.32081e-08
2.44755e-06
1.31933e-08
2.44302e-06
1.31949e-08
2.43849e-06
1.32136e-08
2.43397e-06
1.32498e-08
2.42944e-06
1.33043e-08
2.42491e-06
1.33779e-08
2.42035e-06
1.34717e-08
2.41577e-06
1.35877e-08
2.41116e-06
1.37285e-08
2.4065e-06
1.38981e-08
2.40179e-06
1.41019e-08
2.39701e-06
1.4347e-08
2.39214e-06
1.4643e-08
2.38717e-06
1.50019e-08
2.38206e-06
1.54391e-08
2.37678e-06
1.59741e-08
2.3713e-06
1.66312e-08
2.36555e-06
1.74413e-08
2.35949e-06
1.84436e-08
2.35302e-06
1.96878e-08
2.34606e-06
2.12381e-08
2.33848e-06
2.31775e-08
2.33012e-06
2.56148e-08
2.3208e-06
2.86943e-08
2.31028e-06
3.2609e-08
2.29825e-06
3.7621e-08
2.28432e-06
4.40892e-08
2.26803e-06
5.25103e-08
2.24878e-06
6.35754e-08
2.22589e-06
7.82454e-08
2.19861e-06
9.78422e-08
2.16628e-06
1.24127e-07
2.12868e-06
1.59285e-07
2.08683e-06
2.05607e-07
2.04476e-06
2.64471e-07
2.01285e-06
3.33046e-07
3.95209e-07
2.00768e-06
2.84634e-06
1.98758e-08
2.83777e-06
3.3926e-08
2.82926e-06
3.21735e-08
2.82278e-06
2.3148e-08
2.81803e-06
1.6268e-08
2.81403e-06
1.36147e-08
2.81013e-06
1.35627e-08
2.80609e-06
1.44044e-08
2.80186e-06
1.52836e-08
2.79747e-06
1.59547e-08
2.79297e-06
1.64255e-08
2.78839e-06
1.67636e-08
2.78374e-06
1.70278e-08
2.77903e-06
1.72548e-08
2.77427e-06
1.74649e-08
2.76946e-06
1.7668e-08
2.76459e-06
1.78684e-08
2.75968e-06
1.80678e-08
2.75471e-06
1.82661e-08
2.74969e-06
1.84616e-08
2.74462e-06
1.86511e-08
2.73951e-06
1.88306e-08
2.73435e-06
1.89955e-08
2.72916e-06
1.91413e-08
2.72393e-06
1.92641e-08
2.71868e-06
1.93611e-08
2.71342e-06
1.943e-08
2.70814e-06
1.94698e-08
2.70286e-06
1.94801e-08
2.69759e-06
1.94621e-08
2.69234e-06
1.9418e-08
2.6871e-06
1.93505e-08
2.68189e-06
1.92636e-08
2.67671e-06
1.9161e-08
2.67156e-06
1.90474e-08
2.66645e-06
1.89273e-08
2.66137e-06
1.88051e-08
2.65634e-06
1.86848e-08
2.65134e-06
1.85704e-08
2.64638e-06
1.84653e-08
2.64145e-06
1.83729e-08
2.63656e-06
1.82958e-08
2.63169e-06
1.82364e-08
2.62684e-06
1.81965e-08
2.62201e-06
1.81775e-08
2.61719e-06
1.81803e-08
2.61238e-06
1.82058e-08
2.60757e-06
1.82547e-08
2.60276e-06
1.83279e-08
2.59795e-06
1.84264e-08
2.59311e-06
1.85519e-08
2.58825e-06
1.87069e-08
2.58336e-06
1.88949e-08
2.57843e-06
1.91212e-08
2.57345e-06
1.93928e-08
2.56841e-06
1.97192e-08
2.56328e-06
2.0113e-08
2.55805e-06
2.05897e-08
2.55269e-06
2.11695e-08
2.54717e-06
2.18772e-08
2.54146e-06
2.27443e-08
2.5355e-06
2.38099e-08
2.52925e-06
2.51231e-08
2.52263e-06
2.67459e-08
2.51557e-06
2.87567e-08
2.50795e-06
3.12556e-08
2.49967e-06
3.43714e-08
2.49058e-06
3.82708e-08
2.48051e-06
4.3171e-08
2.46928e-06
4.93575e-08
2.45667e-06
5.72068e-08
2.44249e-06
6.72159e-08
2.42655e-06
8.00384e-08
2.4088e-06
9.6522e-08
2.38945e-06
1.17732e-07
2.3692e-06
1.44917e-07
2.3497e-06
1.79338e-07
2.33409e-06
2.21765e-07
2.32774e-06
2.71369e-07
2.33789e-06
3.23447e-07
3.65753e-07
2.3679e-06
3.0466e-06
2.40025e-08
3.03845e-06
4.20791e-08
3.02984e-06
4.07765e-08
3.02285e-06
3.01404e-08
3.01746e-06
2.16582e-08
3.0129e-06
1.81789e-08
3.00855e-06
1.79115e-08
3.00414e-06
1.88163e-08
2.99959e-06
1.983e-08
2.99492e-06
2.06258e-08
2.99015e-06
2.11947e-08
2.9853e-06
2.16092e-08
2.98039e-06
2.19366e-08
2.97543e-06
2.222e-08
2.97041e-06
2.24834e-08
2.96534e-06
2.27385e-08
2.96022e-06
2.29905e-08
2.95505e-06
2.32414e-08
2.94982e-06
2.34911e-08
2.94455e-06
2.37372e-08
2.93923e-06
2.39761e-08
2.93386e-06
2.42026e-08
2.92845e-06
2.44111e-08
2.923e-06
2.4596e-08
2.91752e-06
2.47525e-08
2.91202e-06
2.4877e-08
2.90649e-06
2.49667e-08
2.90096e-06
2.50203e-08
2.89542e-06
2.50375e-08
2.88988e-06
2.50194e-08
2.88436e-06
2.49686e-08
2.87885e-06
2.4889e-08
2.87337e-06
2.47848e-08
2.86791e-06
2.46611e-08
2.86249e-06
2.45233e-08
2.85709e-06
2.43772e-08
2.85174e-06
2.42281e-08
2.84642e-06
2.40812e-08
2.84114e-06
2.39413e-08
2.83589e-06
2.38127e-08
2.83067e-06
2.36996e-08
2.82548e-06
2.36052e-08
2.82032e-06
2.35324e-08
2.81518e-06
2.34836e-08
2.81007e-06
2.34603e-08
2.80496e-06
2.34638e-08
2.79987e-06
2.34951e-08
2.79478e-06
2.3555e-08
2.78969e-06
2.36447e-08
2.78459e-06
2.37654e-08
2.77949e-06
2.39191e-08
2.77437e-06
2.41089e-08
2.76922e-06
2.43391e-08
2.76403e-06
2.4616e-08
2.75881e-06
2.49484e-08
2.75353e-06
2.53478e-08
2.74818e-06
2.5829e-08
2.74273e-06
2.64109e-08
2.73718e-06
2.71172e-08
2.7315e-06
2.79774e-08
2.72564e-06
2.9028e-08
2.71958e-06
3.03141e-08
2.71326e-06
3.18917e-08
2.70665e-06
3.38299e-08
2.69967e-06
3.6215e-08
2.69227e-06
3.91548e-08
2.68436e-06
4.27841e-08
2.67588e-06
4.72727e-08
2.66674e-06
5.28342e-08
2.6569e-06
5.97375e-08
2.64633e-06
6.83202e-08
2.6351e-06
7.90021e-08
2.6234e-06
9.22959e-08
2.61168e-06
1.08807e-07
2.60078e-06
1.29207e-07
2.59213e-06
1.5414e-07
2.58804e-06
1.8401e-07
2.59184e-06
2.18552e-07
2.60771e-06
2.56086e-07
2.63933e-06
2.9242e-07
3.19848e-07
2.68582e-06
3.261e-06
2.74181e-08
3.2535e-06
4.95768e-08
3.24495e-06
4.93232e-08
3.23747e-06
3.76275e-08
3.23139e-06
2.77397e-08
3.22618e-06
2.33821e-08
3.22132e-06
2.2774e-08
3.2165e-06
2.36336e-08
3.21162e-06
2.47116e-08
3.20666e-06
2.55924e-08
3.20161e-06
2.62381e-08
3.1965e-06
2.67179e-08
3.19134e-06
2.71024e-08
3.18612e-06
2.74383e-08
3.18085e-06
2.77523e-08
3.17553e-06
2.80573e-08
3.17017e-06
2.83591e-08
3.16475e-06
2.866e-08
3.15928e-06
2.89595e-08
3.15377e-06
2.92549e-08
3.1482e-06
2.95418e-08
3.1426e-06
2.98144e-08
3.13695e-06
3.00658e-08
3.13126e-06
3.02897e-08
3.12554e-06
3.04803e-08
3.11979e-06
3.06333e-08
3.11403e-06
3.07455e-08
3.10825e-06
3.08152e-08
3.10247e-06
3.0842e-08
3.09668e-06
3.08272e-08
3.0909e-06
3.07738e-08
3.08514e-06
3.06862e-08
3.0794e-06
3.05693e-08
3.07368e-06
3.0429e-08
3.06798e-06
3.02718e-08
3.06232e-06
3.01043e-08
3.05668e-06
2.99327e-08
3.05108e-06
2.97631e-08
3.04552e-06
2.96011e-08
3.03998e-06
2.94521e-08
3.03448e-06
2.93205e-08
3.029e-06
2.92106e-08
3.02355e-06
2.91255e-08
3.01813e-06
2.90679e-08
3.01273e-06
2.90397e-08
3.00734e-06
2.90423e-08
3.00196e-06
2.90768e-08
2.9966e-06
2.91443e-08
2.99124e-06
2.92459e-08
2.98588e-06
2.93831e-08
2.98052e-06
2.95581e-08
2.97515e-06
2.97745e-08
2.96977e-06
3.00372e-08
2.96437e-06
3.03535e-08
2.95893e-06
3.07334e-08
2.95346e-06
3.11897e-08
2.94794e-06
3.17394e-08
2.94235e-06
3.24034e-08
2.93668e-06
3.32081e-08
2.93091e-06
3.41857e-08
2.92502e-06
3.53755e-08
2.91898e-06
3.68258e-08
2.91276e-06
3.85947e-08
2.90634e-06
4.07534e-08
2.89968e-06
4.33881e-08
2.89275e-06
4.66037e-08
2.88555e-06
5.05273e-08
2.87806e-06
5.53128e-08
2.87031e-06
6.11453e-08
2.86237e-06
6.82459e-08
2.8544e-06
7.68742e-08
2.84666e-06
8.7328e-08
2.83962e-06
9.99351e-08
2.834e-06
1.15031e-07
2.83091e-06
1.32907e-07
2.83194e-06
1.53719e-07
2.83926e-06
1.77314e-07
2.85547e-06
2.02963e-07
2.8832e-06
2.28983e-07
2.92388e-06
2.52363e-07
2.68711e-07
2.97565e-06
3.49043e-06
3.006e-08
3.48374e-06
5.62625e-08
3.47539e-06
5.76778e-08
3.46747e-06
4.55426e-08
3.4607e-06
3.45122e-08
3.45483e-06
2.92563e-08
3.44941e-06
2.81864e-08
3.44416e-06
2.88849e-08
3.43893e-06
2.99467e-08
3.43366e-06
3.08642e-08
3.42834e-06
3.15598e-08
3.42296e-06
3.20896e-08
3.41754e-06
3.25221e-08
3.41208e-06
3.29046e-08
3.40657e-06
3.32648e-08
3.40101e-06
3.36162e-08
3.3954e-06
3.39648e-08
3.38975e-06
3.43128e-08
3.38405e-06
3.46595e-08
3.37831e-06
3.50018e-08
3.37252e-06
3.53347e-08
3.36669e-06
3.56514e-08
3.36081e-06
3.59444e-08
3.3549e-06
3.62066e-08
3.34896e-06
3.64313e-08
3.34299e-06
3.66136e-08
3.337e-06
3.67499e-08
3.331e-06
3.68382e-08
3.32498e-06
3.68779e-08
3.31896e-06
3.68706e-08
3.31295e-06
3.68194e-08
3.30694e-06
3.6729e-08
3.30095e-06
3.66051e-08
3.29497e-06
3.64542e-08
3.28902e-06
3.62835e-08
3.28309e-06
3.61002e-08
3.27719e-06
3.59115e-08
3.27131e-06
3.57241e-08
3.26547e-06
3.55446e-08
3.25965e-06
3.53786e-08
3.25386e-06
3.52315e-08
3.24811e-06
3.51078e-08
3.24237e-06
3.50111e-08
3.23667e-06
3.49442e-08
3.23098e-06
3.49094e-08
3.22532e-06
3.49081e-08
3.21968e-06
3.49415e-08
3.21405e-06
3.50107e-08
3.20844e-06
3.51167e-08
3.20283e-06
3.52613e-08
3.19724e-06
3.54468e-08
3.19165e-06
3.56768e-08
3.18607e-06
3.59569e-08
3.18048e-06
3.62949e-08
3.17489e-06
3.67015e-08
3.16928e-06
3.71904e-08
3.16365e-06
3.77796e-08
3.15799e-06
3.8491e-08
3.1523e-06
3.93521e-08
3.14655e-06
4.03956e-08
3.14075e-06
4.16614e-08
3.13488e-06
4.31968e-08
3.12893e-06
4.50582e-08
3.12291e-06
4.73122e-08
3.1168e-06
5.00377e-08
3.11064e-06
5.33269e-08
3.10445e-06
5.7287e-08
3.09831e-06
6.20417e-08
3.09232e-06
6.77311e-08
3.08666e-06
7.45103e-08
3.08161e-06
8.2545e-08
3.07756e-06
9.20024e-08
3.0751e-06
1.03034e-07
3.07502e-06
1.15745e-07
3.07842e-06
1.30152e-07
3.08669e-06
1.46107e-07
3.10146e-06
1.632e-07
3.12446e-06
1.80629e-07
3.15704e-06
1.97064e-07
3.19948e-06
2.1059e-07
2.1888e-07
3.24998e-06
3.73585e-06
3.19539e-08
3.73004e-06
6.20744e-08
3.72198e-06
6.57309e-08
3.71374e-06
5.37835e-08
3.70634e-06
4.19204e-08
3.6998e-06
3.57888e-08
3.69383e-06
3.41586e-08
3.68813e-06
3.45855e-08
3.68253e-06
3.55483e-08
3.67694e-06
3.64496e-08
3.67134e-06
3.71634e-08
3.66571e-06
3.77245e-08
3.66004e-06
3.81932e-08
3.65433e-06
3.86144e-08
3.64858e-06
3.90147e-08
3.64279e-06
3.94076e-08
3.63695e-06
3.97988e-08
3.63108e-06
4.01902e-08
3.62516e-06
4.05807e-08
3.6192e-06
4.09667e-08
3.61319e-06
4.13426e-08
3.60715e-06
4.1701e-08
3.60106e-06
4.20337e-08
3.59494e-06
4.23329e-08
3.58879e-06
4.25913e-08
3.58261e-06
4.28035e-08
3.57641e-06
4.29655e-08
3.5702e-06
4.3075e-08
3.56396e-06
4.31313e-08
3.55773e-06
4.3136e-08
3.55148e-06
4.30923e-08
3.54525e-06
4.30052e-08
3.53902e-06
4.28807e-08
3.5328e-06
4.27259e-08
3.52659e-06
4.25483e-08
3.52041e-06
4.23559e-08
3.51424e-06
4.21562e-08
3.5081e-06
4.19566e-08
3.50199e-06
4.17641e-08
3.4959e-06
4.1585e-08
3.48984e-06
4.1425e-08
3.48381e-06
4.12888e-08
3.4778e-06
4.11804e-08
3.47182e-06
4.11027e-08
3.46587e-06
4.1058e-08
3.45995e-06
4.10478e-08
3.45405e-06
4.10734e-08
3.44818e-06
4.11355e-08
3.44233e-06
4.12353e-08
3.43651e-06
4.13743e-08
3.43072e-06
4.15547e-08
3.42495e-06
4.17802e-08
3.4192e-06
4.20565e-08
3.41348e-06
4.23915e-08
3.40778e-06
4.27958e-08
3.40211e-06
4.32836e-08
3.39645e-06
4.38724e-08
3.39082e-06
4.45841e-08
3.3852e-06
4.54452e-08
3.3796e-06
4.64872e-08
3.37403e-06
4.77471e-08
3.36849e-06
4.9268e-08
3.36299e-06
5.11e-08
3.35757e-06
5.33002e-08
3.35225e-06
5.59334e-08
3.3471e-06
5.90719e-08
3.3422e-06
6.27954e-08
3.33767e-06
6.71891e-08
3.3337e-06
7.23414e-08
3.33051e-06
7.83387e-08
3.32845e-06
8.52575e-08
3.32797e-06
9.31527e-08
3.32963e-06
1.02039e-07
3.33419e-06
1.1187e-07
3.34253e-06
1.22499e-07
3.35568e-06
1.33649e-07
3.37472e-06
1.44859e-07
3.4006e-06
1.55451e-07
3.43386e-06
1.64507e-07
3.47424e-06
1.70913e-07
1.7352e-07
3.52031e-06
3.99832e-06
3.31923e-08
3.99336e-06
6.70322e-08
3.98568e-06
7.34063e-08
3.97724e-06
6.22295e-08
3.96929e-06
4.98677e-08
3.96215e-06
4.29291e-08
3.95563e-06
4.06743e-08
3.94948e-06
4.07364e-08
3.94351e-06
4.15226e-08
3.93761e-06
4.23543e-08
3.93172e-06
4.30521e-08
3.92582e-06
4.36229e-08
3.9199e-06
4.41137e-08
3.91395e-06
4.45635e-08
3.90797e-06
4.49966e-08
3.90195e-06
4.54249e-08
3.8959e-06
4.58536e-08
3.88981e-06
4.62838e-08
3.88368e-06
4.67138e-08
3.8775e-06
4.71397e-08
3.8713e-06
4.75552e-08
3.86505e-06
4.79524e-08
3.85877e-06
4.83225e-08
3.85245e-06
4.86571e-08
3.8461e-06
4.89487e-08
3.83973e-06
4.91912e-08
3.83333e-06
4.93803e-08
3.82691e-06
4.95135e-08
3.82047e-06
4.95901e-08
3.81403e-06
4.96114e-08
3.80757e-06
4.95808e-08
3.80111e-06
4.95033e-08
3.79466e-06
4.9385e-08
3.78821e-06
4.92333e-08
3.78176e-06
4.90559e-08
3.77533e-06
4.8861e-08
3.76892e-06
4.86565e-08
3.76252e-06
4.84502e-08
3.75615e-06
4.82492e-08
3.7498e-06
4.80602e-08
3.74347e-06
4.7889e-08
3.73718e-06
4.77406e-08
3.73091e-06
4.7619e-08
3.72468e-06
4.75273e-08
3.71848e-06
4.74675e-08
3.71231e-06
4.74412e-08
3.70618e-06
4.74492e-08
3.7001e-06
4.74922e-08
3.69405e-06
4.75711e-08
3.68805e-06
4.76869e-08
3.68209e-06
4.78417e-08
3.67619e-06
4.80388e-08
3.67034e-06
4.82834e-08
3.66454e-06
4.85831e-08
3.65881e-06
4.89478e-08
3.65314e-06
4.93909e-08
3.64755e-06
4.99288e-08
3.64203e-06
5.05816e-08
3.63661e-06
5.13731e-08
3.63129e-06
5.23311e-08
3.62609e-06
5.34875e-08
3.62104e-06
5.48781e-08
3.61618e-06
5.65431e-08
3.61155e-06
5.85259e-08
3.60722e-06
6.08734e-08
3.60329e-06
6.36343e-08
3.59987e-06
6.68574e-08
3.59713e-06
7.05889e-08
3.59527e-06
7.48682e-08
3.59457e-06
7.97218e-08
3.59536e-06
8.51556e-08
3.59807e-06
9.11443e-08
3.60321e-06
9.76181e-08
3.61135e-06
1.04448e-07
3.62315e-06
1.11428e-07
3.63927e-06
1.18261e-07
3.66031e-06
1.24551e-07
3.68671e-06
1.298e-07
3.71853e-06
1.33436e-07
3.75532e-06
1.34869e-07
1.33584e-07
3.796e-06
4.27899e-06
3.39028e-08
4.27481e-06
7.12131e-08
4.26756e-06
8.06615e-08
4.25903e-06
7.07606e-08
4.25066e-06
5.82357e-08
4.24299e-06
5.06003e-08
4.23597e-06
4.76964e-08
4.22938e-06
4.73253e-08
4.22303e-06
4.78684e-08
4.21681e-06
4.85799e-08
4.21063e-06
4.92271e-08
4.20447e-06
4.97843e-08
4.1983e-06
5.02813e-08
4.19212e-06
5.07483e-08
4.18591e-06
5.12052e-08
4.17967e-06
5.1662e-08
4.17341e-06
5.21221e-08
4.16711e-06
5.2586e-08
4.16077e-06
5.30511e-08
4.1544e-06
5.35127e-08
4.148e-06
5.39642e-08
4.14156e-06
5.43969e-08
4.13508e-06
5.48018e-08
4.12858e-06
5.51702e-08
4.12204e-06
5.54941e-08
4.11548e-06
5.57671e-08
4.10889e-06
5.59847e-08
4.10228e-06
5.61442e-08
4.09565e-06
5.62446e-08
4.08901e-06
5.62871e-08
4.08235e-06
5.6275e-08
4.07568e-06
5.62132e-08
4.06901e-06
5.61076e-08
4.06234e-06
5.59656e-08
4.05567e-06
5.57949e-08
4.049e-06
5.56037e-08
4.04235e-06
5.53999e-08
4.03571e-06
5.51913e-08
4.02909e-06
5.49851e-08
4.0225e-06
5.47882e-08
4.01593e-06
5.46062e-08
4.00939e-06
5.44442e-08
4.00288e-06
5.4306e-08
3.99642e-06
5.41946e-08
3.98999e-06
5.41119e-08
3.98362e-06
5.4059e-08
3.97729e-06
5.40364e-08
3.97102e-06
5.40445e-08
3.96481e-06
5.40834e-08
3.95867e-06
5.41537e-08
3.95261e-06
5.42568e-08
3.94663e-06
5.43952e-08
3.94073e-06
5.45735e-08
3.93494e-06
5.47978e-08
3.92925e-06
5.50772e-08
3.92369e-06
5.5423e-08
3.91825e-06
5.58493e-08
3.91297e-06
5.63732e-08
3.90786e-06
5.70142e-08
3.90295e-06
5.77947e-08
3.89827e-06
5.87392e-08
3.89387e-06
5.98743e-08
3.88979e-06
6.12276e-08
3.88612e-06
6.28276e-08
3.88294e-06
6.47015e-08
3.88036e-06
6.68743e-08
3.87854e-06
6.93659e-08
3.87763e-06
7.21881e-08
3.87786e-06
7.53409e-08
3.8795e-06
7.88065e-08
3.88284e-06
8.25443e-08
3.88824e-06
8.64827e-08
3.8961e-06
9.05127e-08
3.90683e-06
9.44801e-08
3.92084e-06
9.81812e-08
3.93851e-06
1.01362e-07
3.96012e-06
1.03724e-07
3.98576e-06
1.04944e-07
4.01528e-06
1.04701e-07
4.04822e-06
1.02719e-07
9.88222e-08
4.08378e-06
4.57916e-06
3.42202e-08
4.57565e-06
7.47263e-08
4.56882e-06
8.74847e-08
4.56031e-06
7.92719e-08
4.55165e-06
6.69025e-08
4.54353e-06
5.87118e-08
4.53606e-06
5.51733e-08
4.52905e-06
5.43282e-08
4.52235e-06
5.45767e-08
4.5158e-06
5.51238e-08
4.50934e-06
5.56871e-08
4.50292e-06
5.62069e-08
4.49651e-06
5.66929e-08
4.49009e-06
5.71644e-08
4.48366e-06
5.76356e-08
4.47721e-06
5.81129e-08
4.47074e-06
5.85982e-08
4.46424e-06
5.90902e-08
4.4577e-06
5.95856e-08
4.45114e-06
6.00787e-08
4.44455e-06
6.05623e-08
4.43792e-06
6.10275e-08
4.43127e-06
6.14647e-08
4.42458e-06
6.1865e-08
4.41787e-06
6.22203e-08
4.41112e-06
6.2524e-08
4.40435e-06
6.27713e-08
4.39756e-06
6.29592e-08
4.39074e-06
6.30866e-08
4.38391e-06
6.31545e-08
4.37706e-06
6.31658e-08
4.37019e-06
6.3125e-08
4.36331e-06
6.30378e-08
4.35643e-06
6.29112e-08
4.34954e-06
6.27525e-08
4.34266e-06
6.25697e-08
4.33578e-06
6.23705e-08
4.32892e-06
6.21624e-08
4.32208e-06
6.19526e-08
4.31526e-06
6.17475e-08
4.30846e-06
6.15529e-08
4.30171e-06
6.13733e-08
4.29499e-06
6.12125e-08
4.28833e-06
6.10729e-08
4.28171e-06
6.09561e-08
4.27516e-06
6.08628e-08
4.26868e-06
6.07927e-08
4.26228e-06
6.07455e-08
4.25596e-06
6.07206e-08
4.24975e-06
6.07176e-08
4.24363e-06
6.0737e-08
4.23764e-06
6.07804e-08
4.23178e-06
6.08506e-08
4.22607e-06
6.09526e-08
4.22052e-06
6.10931e-08
4.21515e-06
6.12809e-08
4.20999e-06
6.1527e-08
4.20505e-06
6.1844e-08
4.20038e-06
6.22462e-08
4.19601e-06
6.27493e-08
4.19198e-06
6.33693e-08
4.18835e-06
6.41223e-08
4.1852e-06
6.50234e-08
4.18261e-06
6.60855e-08
4.18067e-06
6.73181e-08
4.17952e-06
6.87252e-08
4.17929e-06
7.03032e-08
4.18017e-06
7.2038e-08
4.18235e-06
7.39025e-08
4.18607e-06
7.58523e-08
4.19156e-06
7.78227e-08
4.19909e-06
7.97248e-08
4.20896e-06
8.14426e-08
4.2214e-06
8.28322e-08
4.23667e-06
8.37233e-08
4.25492e-06
8.39249e-08
4.27622e-06
8.3238e-08
4.30052e-06
8.14736e-08
4.32757e-06
7.8478e-08
4.35696e-06
7.41602e-08
6.85171e-08
4.3881e-06
4.9002e-06
3.4269e-08
4.89723e-06
7.76944e-08
4.89083e-06
9.38896e-08
4.88242e-06
8.7681e-08
4.87356e-06
7.5755e-08
4.86511e-06
6.71697e-08
4.85724e-06
6.3044e-08
4.84985e-06
6.17117e-08
4.8428e-06
6.16309e-08
4.83594e-06
6.19779e-08
4.8292e-06
6.24275e-08
4.82253e-06
6.28868e-08
4.81587e-06
6.33443e-08
4.80923e-06
6.38072e-08
4.80259e-06
6.42822e-08
4.79593e-06
6.47719e-08
4.78925e-06
6.52756e-08
4.78255e-06
6.57902e-08
4.77583e-06
6.63108e-08
4.76908e-06
6.68313e-08
4.7623e-06
6.73434e-08
4.7555e-06
6.78378e-08
4.74867e-06
6.83049e-08
4.74181e-06
6.87355e-08
4.73492e-06
6.91214e-08
4.728e-06
6.94558e-08
4.72106e-06
6.97337e-08
4.71409e-06
6.99519e-08
4.70709e-06
7.01089e-08
4.70007e-06
7.02056e-08
4.69303e-06
7.0244e-08
4.68598e-06
7.02283e-08
4.67891e-06
7.01636e-08
4.67183e-06
7.00562e-08
4.66474e-06
6.99129e-08
4.65766e-06
6.97412e-08
4.65058e-06
6.95481e-08
4.64352e-06
6.93409e-08
4.63647e-06
6.91262e-08
4.62945e-06
6.89101e-08
4.62247e-06
6.86979e-08
4.61553e-06
6.84938e-08
4.60865e-06
6.83009e-08
4.60182e-06
6.81212e-08
4.59506e-06
6.79555e-08
4.58839e-06
6.78036e-08
4.5818e-06
6.76645e-08
4.57533e-06
6.7537e-08
4.56896e-06
6.74192e-08
4.56273e-06
6.73099e-08
4.55665e-06
6.7208e-08
4.55073e-06
6.71138e-08
4.54499e-06
6.70284e-08
4.53945e-06
6.69546e-08
4.53413e-06
6.68967e-08
4.52907e-06
6.68602e-08
4.52428e-06
6.68521e-08
4.5198e-06
6.68802e-08
4.51568e-06
6.69528e-08
4.51196e-06
6.70783e-08
4.5087e-06
6.72642e-08
4.50596e-06
6.75164e-08
4.50382e-06
6.78383e-08
4.50237e-06
6.82297e-08
4.50172e-06
6.86851e-08
4.50198e-06
6.91928e-08
4.5033e-06
6.97326e-08
4.50583e-06
7.02746e-08
4.50973e-06
7.07767e-08
4.5152e-06
7.11834e-08
4.5224e-06
7.14238e-08
4.53153e-06
7.14109e-08
4.54276e-06
7.10416e-08
4.55623e-06
7.01988e-08
4.57205e-06
6.87555e-08
4.59024e-06
6.6583e-08
4.61078e-06
6.35622e-08
4.63352e-06
5.96004e-08
4.65821e-06
5.46488e-08
4.68453e-06
4.87199e-08
4.18981e-08
4.71202e-06
5.2436e-06
3.41541e-08
5.24105e-06
8.02391e-08
5.23504e-06
9.99084e-08
5.22679e-06
9.59306e-08
5.21785e-06
8.46958e-08
5.20913e-06
7.58831e-08
5.20093e-06
7.12434e-08
5.19321e-06
6.94351e-08
5.18584e-06
6.90075e-08
5.17868e-06
6.91284e-08
5.17167e-06
6.94392e-08
5.16474e-06
6.98169e-08
5.15786e-06
7.02292e-08
5.151e-06
7.06701e-08
5.14414e-06
7.11387e-08
5.13728e-06
7.16325e-08
5.13041e-06
7.21477e-08
5.12352e-06
7.26792e-08
5.11662e-06
7.32205e-08
5.10969e-06
7.37641e-08
5.10273e-06
7.43012e-08
5.09576e-06
7.4822e-08
5.08875e-06
7.53167e-08
5.08172e-06
7.5776e-08
5.07466e-06
7.61917e-08
5.06758e-06
7.65567e-08
5.06046e-06
7.68658e-08
5.05332e-06
7.71154e-08
5.04616e-06
7.73039e-08
5.03897e-06
7.74312e-08
5.03175e-06
7.74991e-08
5.02452e-06
7.75106e-08
5.01727e-06
7.74703e-08
5.01001e-06
7.73834e-08
5.00275e-06
7.72562e-08
4.99549e-06
7.70952e-08
4.98823e-06
7.69068e-08
4.98099e-06
7.66976e-08
4.97378e-06
7.64737e-08
4.9666e-06
7.62403e-08
4.95947e-06
7.60023e-08
4.95239e-06
7.5763e-08
4.94537e-06
7.55248e-08
4.93844e-06
7.52888e-08
4.93159e-06
7.50548e-08
4.92485e-06
7.48217e-08
4.91823e-06
7.45875e-08
4.91174e-06
7.43496e-08
4.90541e-06
7.41051e-08
4.89925e-06
7.38511e-08
4.89327e-06
7.35853e-08
4.88751e-06
7.33061e-08
4.88198e-06
7.30128e-08
4.87671e-06
7.27058e-08
4.87173e-06
7.23862e-08
4.86707e-06
7.20562e-08
4.86277e-06
7.17185e-08
4.85886e-06
7.1376e-08
4.85539e-06
7.1031e-08
4.85242e-06
7.0685e-08
4.85001e-06
7.03376e-08
4.84822e-06
6.9986e-08
4.84714e-06
6.96242e-08
4.84685e-06
6.92417e-08
4.84746e-06
6.88229e-08
4.84907e-06
6.83458e-08
4.8518e-06
6.77814e-08
4.85578e-06
6.70923e-08
4.86114e-06
6.62323e-08
4.868e-06
6.51458e-08
4.8765e-06
6.37676e-08
4.88674e-06
6.20235e-08
4.89882e-06
5.98319e-08
4.91278e-06
5.7107e-08
4.92866e-06
5.37632e-08
4.94641e-06
4.97227e-08
4.96594e-06
4.49256e-08
4.9871e-06
3.93425e-08
5.00967e-06
3.29881e-08
5.03337e-06
2.59308e-08
1.8298e-08
5.05789e-06
5.61096e-06
3.39594e-08
5.60872e-06
8.24744e-08
5.60305e-06
1.05586e-07
5.59499e-06
1.03986e-07
5.58604e-06
9.36452e-08
5.57716e-06
8.47683e-08
5.5687e-06
7.97047e-08
5.56068e-06
7.74517e-08
5.55301e-06
7.66762e-08
5.54559e-06
7.65556e-08
5.53832e-06
7.67084e-08
5.53115e-06
7.69866e-08
5.52404e-06
7.73383e-08
5.51697e-06
7.77449e-08
5.50991e-06
7.81968e-08
5.50285e-06
7.86866e-08
5.4958e-06
7.92068e-08
5.48873e-06
7.97497e-08
5.48164e-06
8.03069e-08
5.47454e-06
8.08698e-08
5.46742e-06
8.14286e-08
5.46028e-06
8.19732e-08
5.45311e-06
8.24934e-08
5.44591e-06
8.298e-08
5.43869e-06
8.34245e-08
5.43145e-06
8.38196e-08
5.42417e-06
8.41599e-08
5.41687e-06
8.44412e-08
5.40954e-06
8.46614e-08
5.40219e-06
8.48197e-08
5.39482e-06
8.4917e-08
5.38742e-06
8.49555e-08
5.38001e-06
8.49386e-08
5.3726e-06
8.48706e-08
5.36518e-06
8.47568e-08
5.35777e-06
8.46027e-08
5.35037e-06
8.44141e-08
5.34299e-06
8.41964e-08
5.33565e-06
8.39549e-08
5.32835e-06
8.36942e-08
5.32112e-06
8.34179e-08
5.31395e-06
8.31287e-08
5.30686e-06
8.28277e-08
5.29988e-06
8.25149e-08
5.29301e-06
8.21889e-08
5.28627e-06
8.18475e-08
5.27968e-06
8.14873e-08
5.27326e-06
8.11044e-08
5.26704e-06
8.06946e-08
5.26103e-06
8.02536e-08
5.25526e-06
7.97775e-08
5.24975e-06
7.92628e-08
5.24453e-06
7.87067e-08
5.23963e-06
7.8107e-08
5.23508e-06
7.7462e-08
5.23092e-06
7.67704e-08
5.22719e-06
7.60307e-08
5.22394e-06
7.52411e-08
5.2212e-06
7.43987e-08
5.21905e-06
7.34991e-08
5.21754e-06
7.25357e-08
5.21673e-06
7.14992e-08
5.21671e-06
7.03768e-08
5.21755e-06
6.91516e-08
5.21934e-06
6.78023e-08
5.22218e-06
6.63024e-08
5.22615e-06
6.46201e-08
5.23136e-06
6.27177e-08
5.23788e-06
6.0552e-08
5.24581e-06
5.80744e-08
5.25522e-06
5.52316e-08
5.26617e-06
5.19666e-08
5.27867e-06
4.8221e-08
5.29275e-06
4.39376e-08
5.30837e-06
3.90651e-08
5.32545e-06
3.35638e-08
5.3439e-06
2.74145e-08
5.36355e-06
2.06266e-08
5.38423e-06
1.32529e-08
5.40571e-06
5.3952e-09
-2.79732e-09
5.42775e-06
6.00398e-06
3.37493e-08
6.00195e-06
8.4501e-08
5.99657e-06
1.10973e-07
5.98872e-06
1.1183e-07
5.97983e-06
1.02541e-07
5.97085e-06
9.37507e-08
5.96219e-06
8.83613e-08
5.95393e-06
8.5711e-08
5.94601e-06
8.46005e-08
5.93833e-06
8.42332e-08
5.93082e-06
8.42159e-08
5.92343e-06
8.43807e-08
5.91611e-06
8.4659e-08
5.90883e-06
8.502e-08
5.90159e-06
8.54461e-08
5.89435e-06
8.59241e-08
5.88712e-06
8.64429e-08
5.87988e-06
8.69918e-08
5.87262e-06
8.75607e-08
5.86536e-06
8.81392e-08
5.85808e-06
8.87168e-08
5.85077e-06
8.92826e-08
5.84345e-06
8.98265e-08
5.8361e-06
9.03387e-08
5.82873e-06
9.08107e-08
5.82133e-06
9.12347e-08
5.8139e-06
9.1605e-08
5.80645e-06
9.19169e-08
5.79898e-06
9.21673e-08
5.79148e-06
9.23546e-08
5.78396e-06
9.24788e-08
5.77643e-06
9.25408e-08
5.76889e-06
9.25431e-08
5.76134e-06
9.24889e-08
5.7538e-06
9.23823e-08
5.74628e-06
9.22277e-08
5.73877e-06
9.20299e-08
5.7313e-06
9.17933e-08
5.72388e-06
9.1522e-08
5.71652e-06
9.12195e-08
5.70923e-06
9.08884e-08
5.70203e-06
9.05299e-08
5.69494e-06
9.0144e-08
5.68798e-06
8.97293e-08
5.68115e-06
8.92833e-08
5.6745e-06
8.88022e-08
5.66803e-06
8.82813e-08
5.66176e-06
8.77154e-08
5.65574e-06
8.70988e-08
5.64997e-06
8.64258e-08
5.64449e-06
8.56909e-08
5.63932e-06
8.48888e-08
5.6345e-06
8.40148e-08
5.63006e-06
8.30643e-08
5.62604e-06
8.20329e-08
5.62247e-06
8.0916e-08
5.61939e-06
7.97088e-08
5.61686e-06
7.84054e-08
5.61491e-06
7.6999e-08
5.61361e-06
7.54807e-08
5.61301e-06
7.38396e-08
5.61318e-06
7.20623e-08
5.61418e-06
7.01324e-08
5.61608e-06
6.80301e-08
5.61894e-06
6.57326e-08
5.62285e-06
6.32131e-08
5.62787e-06
6.04418e-08
5.63406e-06
5.73853e-08
5.64147e-06
5.40078e-08
5.65016e-06
5.02711e-08
5.66016e-06
4.61356e-08
5.67148e-06
4.15618e-08
5.68412e-06
3.65121e-08
5.69804e-06
3.0953e-08
5.71319e-06
2.48586e-08
5.7295e-06
1.82161e-08
5.74684e-06
1.1037e-08
5.76508e-06
3.34749e-09
5.78408e-06
-4.76598e-09
5.80364e-06
-1.31912e-08
-2.17725e-08
5.8236e-06
6.42448e-06
3.35705e-08
6.42258e-06
8.64039e-08
6.41743e-06
1.16122e-07
6.4098e-06
1.19461e-07
6.40101e-06
1.11338e-07
6.39199e-06
1.02765e-07
6.38321e-06
9.71491e-08
6.37476e-06
9.41591e-08
6.36662e-06
9.2738e-08
6.35873e-06
9.21289e-08
6.35101e-06