/*--------------------------------*- C++ -*----------------------------------*\
| =========                 |                                                 |
| \\      /  F ield         | OpenFOAM: The Open Source CFD Toolbox           |
|  \\    /   O peration     | Version:  4.1                                   |
|   \\  /    A nd           | Web:      www.OpenFOAM.org                      |
|    \\/     M anipulation  |                                                 |
\*---------------------------------------------------------------------------*/
FoamFile
{
    version     2.0;
    format      ascii;
    class       surfaceScalarField;
    location    "0.4";
    object      phi;
}
// * * * * * * * * * * * * * * * * * * * * * * * * * * * * * * * * * * * * * //

dimensions      [1 0 -1 0 0 0 0];

internalField   nonuniform List<scalar> 
23692
(
9.30407e-05
3.88769e-08
9.29326e-05
1.08041e-07
9.27581e-05
1.74511e-07
9.2551e-05
2.07113e-07
9.23475e-05
2.03592e-07
9.21666e-05
1.80869e-07
9.201e-05
1.56673e-07
9.18699e-05
1.40168e-07
9.17374e-05
1.32497e-07
9.16065e-05
1.31036e-07
9.14738e-05
1.32721e-07
9.13385e-05
1.35431e-07
9.12006e-05
1.38098e-07
9.10604e-05
1.40358e-07
9.09184e-05
1.42184e-07
9.0775e-05
1.4367e-07
9.06305e-05
1.44918e-07
9.04849e-05
1.46007e-07
9.03383e-05
1.46983e-07
9.0191e-05
1.47869e-07
9.0043e-05
1.4867e-07
8.98944e-05
1.49378e-07
8.97453e-05
1.49972e-07
8.95959e-05
1.50435e-07
8.94463e-05
1.50737e-07
8.92967e-05
1.50852e-07
8.91475e-05
1.50762e-07
8.89987e-05
1.50449e-07
8.88507e-05
1.49899e-07
8.87036e-05
1.49112e-07
8.85578e-05
1.48088e-07
8.84135e-05
1.4684e-07
8.82709e-05
1.45388e-07
8.81302e-05
1.43753e-07
8.79915e-05
1.41968e-07
8.7855e-05
1.40067e-07
8.77208e-05
1.38092e-07
8.75888e-05
1.36083e-07
8.74592e-05
1.34086e-07
8.73318e-05
1.32143e-07
8.72065e-05
1.30303e-07
8.70832e-05
1.28611e-07
8.69618e-05
1.2711e-07
8.68418e-05
1.25852e-07
8.67232e-05
1.24876e-07
8.66055e-05
1.24231e-07
8.64884e-05
1.23963e-07
8.63714e-05
1.24123e-07
8.62541e-05
1.24759e-07
8.61358e-05
1.25929e-07
8.60161e-05
1.27696e-07
8.58942e-05
1.30129e-07
8.57694e-05
1.33313e-07
8.56408e-05
1.37346e-07
8.55074e-05
1.42345e-07
8.53681e-05
1.48454e-07
8.52217e-05
1.55845e-07
8.50665e-05
1.64731e-07
8.49009e-05
1.75378e-07
8.47228e-05
1.88104e-07
8.45296e-05
2.03317e-07
8.43184e-05
2.21523e-07
8.40854e-05
2.43359e-07
8.38263e-05
2.69641e-07
8.35356e-05
3.01417e-07
8.32063e-05
3.40053e-07
8.28298e-05
3.87351e-07
8.2395e-05
4.45726e-07
8.18875e-05
5.18458e-07
8.12885e-05
6.10089e-07
8.05726e-05
7.27009e-07
7.97054e-05
8.78376e-07
7.86389e-05
1.07757e-06
7.73056e-05
1.34448e-06
7.56076e-05
1.70925e-06
7.34006e-05
2.21815e-06
7.04688e-05
2.94289e-06
6.64841e-05
3.99589e-06
6.09291e-05
5.56605e-06
5.29341e-05
8.00602e-06
1.22512e-05
4.06939e-05
9.95597e-05
7.8541e-08
9.94463e-05
2.21462e-07
9.92618e-05
3.58951e-07
9.9042e-05
4.26952e-07
9.88251e-05
4.20503e-07
9.86318e-05
3.74223e-07
9.84639e-05
3.24594e-07
9.83136e-05
2.90579e-07
9.81715e-05
2.74659e-07
9.80311e-05
2.71499e-07
9.78891e-05
2.74826e-07
9.77443e-05
2.80296e-07
9.75969e-05
2.85712e-07
9.74471e-05
2.90313e-07
9.72955e-05
2.94041e-07
9.71424e-05
2.97079e-07
9.6988e-05
2.99637e-07
9.68326e-05
3.01871e-07
9.66762e-05
3.03877e-07
9.65189e-05
3.057e-07
9.6361e-05
3.07348e-07
9.62023e-05
3.08807e-07
9.60432e-05
3.10037e-07
9.58838e-05
3.1099e-07
9.57241e-05
3.11617e-07
9.55645e-05
3.11867e-07
9.54052e-05
3.11692e-07
9.52463e-05
3.1106e-07
9.50883e-05
3.09947e-07
9.49313e-05
3.08345e-07
9.47755e-05
3.06262e-07
9.46214e-05
3.03718e-07
9.4469e-05
3.00752e-07
9.43186e-05
2.97418e-07
9.41703e-05
2.93775e-07
9.40243e-05
2.89898e-07
9.38806e-05
2.85869e-07
9.37393e-05
2.81772e-07
9.36005e-05
2.777e-07
9.34639e-05
2.73745e-07
9.33296e-05
2.70002e-07
9.31974e-05
2.66564e-07
9.3067e-05
2.63526e-07
9.29382e-05
2.60981e-07
9.28107e-05
2.59026e-07
9.26842e-05
2.57752e-07
9.25583e-05
2.57257e-07
9.24324e-05
2.57639e-07
9.23061e-05
2.59005e-07
9.21787e-05
2.6147e-07
9.20498e-05
2.65161e-07
9.19185e-05
2.70223e-07
9.17841e-05
2.76827e-07
9.16456e-05
2.85172e-07
9.1502e-05
2.95499e-07
9.13522e-05
3.08095e-07
9.11948e-05
3.23316e-07
9.10282e-05
3.41591e-07
9.08506e-05
3.63448e-07
9.06598e-05
3.89542e-07
9.04533e-05
4.20683e-07
9.02279e-05
4.57883e-07
8.998e-05
5.02417e-07
8.9705e-05
5.55898e-07
8.93974e-05
6.20394e-07
8.90504e-05
6.9858e-07
8.86554e-05
7.9396e-07
8.82017e-05
9.11178e-07
8.76754e-05
1.05648e-06
8.7059e-05
1.23838e-06
8.63292e-05
1.46867e-06
8.54556e-05
1.76386e-06
8.43977e-05
2.14745e-06
8.3101e-05
2.65313e-06
8.14927e-05
3.32949e-06
7.94765e-05
4.24628e-06
7.69303e-05
5.50099e-06
7.37155e-05
7.22258e-06
6.97251e-05
9.56828e-06
6.50877e-05
1.26553e-05
1.60749e-05
6.12757e-05
0.000106536
1.18003e-07
0.00010642
3.37935e-07
0.000106229
5.50325e-07
0.000105998
6.57282e-07
0.000105769
6.49929e-07
0.000105563
5.80555e-07
0.000105382
5.05016e-07
0.00010522
4.52702e-07
0.000105067
4.27811e-07
0.000104916
4.22444e-07
0.000104764
4.27114e-07
0.000104609
4.35193e-07
0.000104452
4.43293e-07
0.000104292
4.5022e-07
0.00010413
4.5586e-07
0.000103967
4.60475e-07
0.000103803
4.64372e-07
0.000103638
4.67786e-07
0.000103471
4.70854e-07
0.000103304
4.73648e-07
0.000103136
4.76178e-07
0.000102967
4.78418e-07
0.000102798
4.80312e-07
0.000102628
4.81788e-07
0.000102458
4.82763e-07
0.000102288
4.83163e-07
0.000102119
4.82919e-07
0.00010195
4.81977e-07
0.000101782
4.80302e-07
0.000101615
4.77884e-07
0.000101449
4.74732e-07
0.000101284
4.70879e-07
0.000101122
4.66387e-07
0.000100962
4.61331e-07
0.000100803
4.55809e-07
0.000100647
4.49934e-07
0.000100494
4.43829e-07
0.000100343
4.37628e-07
0.000100194
4.31469e-07
0.000100048
4.25497e-07
9.99035e-05
4.19854e-07
9.97615e-05
4.14685e-07
9.96213e-05
4.10136e-07
9.94828e-05
4.0635e-07
9.93455e-05
4.03473e-07
9.9209e-05
4.01649e-07
9.90731e-05
4.01024e-07
9.89372e-05
4.01752e-07
9.88006e-05
4.03993e-07
9.8663e-05
4.07925e-07
9.85235e-05
4.1374e-07
9.83815e-05
4.2166e-07
9.82361e-05
4.31944e-07
9.80864e-05
4.44895e-07
9.79312e-05
4.60873e-07
9.77695e-05
4.80317e-07
9.75998e-05
5.03755e-07
9.74206e-05
5.31833e-07
9.72299e-05
5.6534e-07
9.70255e-05
6.05247e-07
9.68051e-05
6.52754e-07
9.65653e-05
7.0935e-07
9.63028e-05
7.76895e-07
9.6013e-05
8.57731e-07
9.56908e-05
9.54831e-07
9.53297e-05
1.072e-06
9.49219e-05
1.21415e-06
9.44578e-05
1.38772e-06
9.39257e-05
1.60119e-06
9.33109e-05
1.86588e-06
9.25952e-05
2.19703e-06
9.17565e-05
2.61534e-06
9.07677e-05
3.14898e-06
8.95973e-05
3.83628e-06
8.8211e-05
4.72863e-06
8.65773e-05
5.89275e-06
8.46823e-05
7.40875e-06
8.25608e-05
9.35676e-06
8.03658e-05
1.1776e-05
7.84956e-05
1.4538e-05
1.69968e-05
7.75864e-05
0.000114003
1.56114e-07
0.000113886
4.54346e-07
0.000113692
7.44759e-07
0.000113454
8.95036e-07
0.000113214
8.90542e-07
0.000112994
8.00204e-07
0.0001128
6.99267e-07
0.000112624
6.28172e-07
0.000112459
5.93458e-07
0.000112296
5.85059e-07
0.000112133
5.90447e-07
0.000111968
6.00713e-07
0.0001118
6.11246e-07
0.00011163
6.2036e-07
0.000111458
6.27838e-07
0.000111285
6.33997e-07
0.000111111
6.39223e-07
0.000110935
6.43815e-07
0.000110759
6.47957e-07
0.000110581
6.51732e-07
0.000110403
6.55158e-07
0.000110224
6.58195e-07
0.000110045
6.60768e-07
0.000109865
6.62779e-07
0.000109685
6.64121e-07
0.000109505
6.6469e-07
0.000109326
6.64393e-07
0.000109146
6.6316e-07
0.000108968
6.60945e-07
0.000108791
6.5773e-07
0.000108615
6.53532e-07
0.00010844
6.48397e-07
0.000108268
6.42403e-07
0.000108097
6.35657e-07
0.000107929
6.28289e-07
0.000107762
6.20454e-07
0.000107599
6.12317e-07
0.000107437
6.0406e-07
0.000107278
5.95872e-07
0.000107122
5.87944e-07
0.000106967
5.80474e-07
0.000106815
5.73657e-07
0.000106664
5.67691e-07
0.000106515
5.62771e-07
0.000106367
5.59092e-07
0.00010622
5.56851e-07
0.000106073
5.56246e-07
0.000105926
5.57485e-07
0.000105778
5.60786e-07
0.000105629
5.66383e-07
0.000105478
5.74539e-07
0.000105324
5.85552e-07
0.000105167
5.99764e-07
0.000105005
6.17579e-07
0.000104837
6.39479e-07
0.000104663
6.66039e-07
0.00010448
6.97957e-07
0.000104287
7.36077e-07
0.000104083
7.81428e-07
0.000103865
8.3527e-07
0.000103631
8.99142e-07
0.000103378
9.74945e-07
0.000103103
1.06503e-06
0.000102801
1.17233e-06
0.000102469
1.30051e-06
0.0001021
1.4542e-06
0.000101688
1.63927e-06
0.000101226
1.86325e-06
0.000100704
2.13581e-06
0.000100114
2.4695e-06
9.94443e-05
2.88059e-06
9.8683e-05
3.39022e-06
9.782e-05
4.02564e-06
9.68486e-05
4.82136e-06
9.57714e-05
5.81953e-06
9.46099e-05
7.06785e-06
9.34208e-05
8.61149e-06
9.23186e-05
1.04726e-05
9.15018e-05
1.26064e-05
9.12401e-05
1.48132e-05
1.65994e-05
9.16509e-05
0.000121994
1.9154e-07
0.000121881
5.67193e-07
0.000121688
9.37736e-07
0.000121446
1.13646e-06
0.000121196
1.14048e-06
0.000120963
1.03319e-06
0.000120754
9.08588e-07
0.000120564
8.1865e-07
0.000120384
7.73157e-07
0.000120209
7.60581e-07
0.000120034
7.65701e-07
0.000119857
7.77441e-07
0.000119679
7.89936e-07
0.000119498
8.00944e-07
0.000119316
8.10087e-07
0.000119133
8.17684e-07
0.000118948
8.24175e-07
0.000118763
8.29906e-07
0.000118576
8.35092e-07
0.000118389
8.39831e-07
0.000118201
8.44138e-07
0.000118012
8.47963e-07
0.000117823
8.51211e-07
0.000117633
8.53759e-07
0.000117443
8.55472e-07
0.000117253
8.5622e-07
0.000117064
8.5589e-07
0.000116875
8.54394e-07
0.000116686
8.51673e-07
0.000116499
8.47708e-07
0.000116313
8.42518e-07
0.000116129
8.36165e-07
0.000115946
8.28744e-07
0.000115765
8.20392e-07
0.000115587
8.11273e-07
0.00011541
8.01578e-07
0.000115236
7.9152e-07
0.000115064
7.81325e-07
0.000114895
7.71231e-07
0.000114727
7.61483e-07
0.000114562
7.52327e-07
0.000114399
7.44011e-07
0.000114237
7.36785e-07
0.000114076
7.30893e-07
0.000113917
7.26585e-07
0.000113758
7.24106e-07
0.0001136
7.23708e-07
0.000113441
7.2565e-07
0.000113281
7.30205e-07
0.00011312
7.37669e-07
0.000112957
7.48367e-07
0.00011279
7.62668e-07
0.00011262
7.80997e-07
0.000112445
8.03852e-07
0.000112265
8.31819e-07
0.000112077
8.65603e-07
0.000111881
9.06047e-07
0.000111676
9.54167e-07
0.000111459
1.01119e-06
0.000111228
1.07862e-06
0.000110982
1.15825e-06
0.000110718
1.25229e-06
0.000110434
1.36345e-06
0.000110125
1.49502e-06
0.000109788
1.65109e-06
0.00010942
1.83669e-06
0.000109015
2.05808e-06
0.000108569
2.32305e-06
0.000108078
2.6413e-06
0.000107537
3.02493e-06
0.000106944
3.48892e-06
0.000106297
4.05167e-06
0.000105602
4.7353e-06
0.000104872
5.56539e-06
0.000104137
6.5694e-06
0.000103447
7.77241e-06
0.000102885
9.18772e-06
0.000102573
1.0799e-05
0.000102664
1.25303e-05
0.000103288
1.42039e-05
1.55033e-05
0.000104398
0.000130545
2.22974e-07
0.000130439
6.72928e-07
0.000130253
1.1245e-06
0.000130012
1.37736e-06
0.000129755
1.39737e-06
0.000129509
1.27912e-06
0.000129284
1.13389e-06
0.000129077
1.0256e-06
0.000128882
9.68371e-07
0.000128692
9.50191e-07
0.000128504
9.53713e-07
0.000128316
9.65912e-07
0.000128126
9.79668e-07
0.000127936
9.92115e-07
0.000127743
1.00263e-06
0.00012755
1.01148e-06
0.000127355
1.01911e-06
0.00012716
1.02589e-06
0.000126964
1.03205e-06
0.000126767
1.0377e-06
0.000126569
1.04284e-06
0.00012637
1.04742e-06
0.000126172
1.05131e-06
0.000125972
1.05438e-06
0.000125773
1.05645e-06
0.000125574
1.05738e-06
0.000125375
1.05704e-06
0.000125176
1.05531e-06
0.000124978
1.05214e-06
0.000124781
1.04749e-06
0.000124586
1.0414e-06
0.000124391
1.03393e-06
0.000124199
1.02521e-06
0.000124008
1.01538e-06
0.000123819
1.00467e-06
0.000123632
9.93278e-07
0.000123448
9.81475e-07
0.000123265
9.69531e-07
0.000123085
9.57728e-07
0.000122907
9.46361e-07
0.00012273
9.35726e-07
0.000122556
9.26122e-07
0.000122382
9.17846e-07
0.00012221
9.11197e-07
0.000122039
9.06469e-07
0.000121869
9.0396e-07
0.000121698
9.0397e-07
0.000121527
9.06808e-07
0.000121354
9.128e-07
0.00012118
9.22296e-07
0.000121004
9.35681e-07
0.000120825
9.53387e-07
0.000120642
9.75911e-07
0.000120454
1.00383e-06
0.000120261
1.03782e-06
0.00012006
1.07869e-06
0.000119852
1.12739e-06
0.000119634
1.18508e-06
0.000119406
1.25313e-06
0.000119166
1.33318e-06
0.000118911
1.4272e-06
0.00011864
1.53758e-06
0.000118351
1.66715e-06
0.000118041
1.81938e-06
0.000117708
1.99838e-06
0.000117351
2.20917e-06
0.000116966
2.45775e-06
0.000116553
2.75136e-06
0.000116111
3.09865e-06
0.000115642
3.50989e-06
0.000115149
3.99709e-06
0.000114642
4.57394e-06
0.000114138
5.25542e-06
0.000113662
6.0567e-06
0.000113256
6.99084e-06
0.00011298
8.06439e-06
0.000112913
9.26994e-06
0.000113153
1.05745e-05
0.000113795
1.19039e-05
0.000114887
1.3128e-05
1.40598e-05
0.000116345
0.000139696
2.49337e-07
0.000139601
7.6844e-07
0.000139425
1.30067e-06
0.000139189
1.61356e-06
0.000138928
1.6585e-06
0.00013867
1.537e-06
0.000138428
1.37552e-06
0.000138204
1.25005e-06
0.000137992
1.18025e-06
0.000137787
1.15487e-06
0.000137586
1.1552e-06
0.000137386
1.16658e-06
0.000137185
1.18068e-06
0.000136983
1.19394e-06
0.000136781
1.20542e-06
0.000136577
1.21525e-06
0.000136373
1.22383e-06
0.000136168
1.23151e-06
0.000135962
1.23854e-06
0.000135756
1.245e-06
0.000135549
1.2509e-06
0.000135341
1.25616e-06
0.000135133
1.26065e-06
0.000134925
1.26419e-06
0.000134716
1.2666e-06
0.000134508
1.26771e-06
0.0001343
1.26737e-06
0.000134092
1.26546e-06
0.000133885
1.26189e-06
0.000133679
1.25666e-06
0.000133474
1.24978e-06
0.00013327
1.24134e-06
0.000133068
1.23148e-06
0.000132868
1.22038e-06
0.000132669
1.20827e-06
0.000132472
1.19542e-06
0.000132277
1.18212e-06
0.000132084
1.16867e-06
0.000131893
1.15542e-06
0.000131704
1.1427e-06
0.000131516
1.13085e-06
0.00013133
1.12022e-06
0.000131145
1.11115e-06
0.000130961
1.10399e-06
0.000130778
1.09907e-06
0.000130595
1.09675e-06
0.000130412
1.09736e-06
0.000130228
1.10126e-06
0.000130043
1.10883e-06
0.000129856
1.12045e-06
0.000129667
1.13657e-06
0.000129475
1.15766e-06
0.000129279
1.18429e-06
0.000129079
1.21708e-06
0.000128873
1.25678e-06
0.000128661
1.30427e-06
0.000128442
1.36058e-06
0.000128215
1.42691e-06
0.000127978
1.50473e-06
0.00012773
1.59572e-06
0.00012747
1.70192e-06
0.000127197
1.82569e-06
0.00012691
1.96984e-06
0.000126608
2.13766e-06
0.000126289
2.33301e-06
0.000125954
2.56041e-06
0.000125602
2.82509e-06
0.000125237
3.13306e-06
0.000124861
3.49116e-06
0.00012448
3.90698e-06
0.000124105
4.38871e-06
0.000123751
4.94475e-06
0.00012344
5.58295e-06
0.000123204
6.30934e-06
0.000123085
7.12594e-06
0.000123139
8.02756e-06
0.000123428
8.997e-06
0.00012402
9.99917e-06
0.000124966
1.0975e-05
0.000126272
1.18385e-05
1.24843e-05
0.000127864
0.000149489
2.7001e-07
0.000149406
8.51515e-07
0.000149244
1.46277e-06
0.000149016
1.84133e-06
0.000148754
1.92096e-06
0.000148486
1.80524e-06
0.000148228
1.63307e-06
0.000147986
1.49231e-06
0.000147757
1.40944e-06
0.000147536
1.37528e-06
0.000147321
1.37068e-06
0.000147108
1.37977e-06
0.000146896
1.39312e-06
0.000146684
1.40645e-06
0.000146471
1.41837e-06
0.000146258
1.42881e-06
0.000146044
1.43807e-06
0.00014583
1.44646e-06
0.000145615
1.4542e-06
0.0001454
1.46135e-06
0.000145184
1.4679e-06
0.000144967
1.47375e-06
0.00014475
1.47875e-06
0.000144534
1.48271e-06
0.000144317
1.48542e-06
0.0001441
1.4867e-06
0.000143883
1.48638e-06
0.000143667
1.48432e-06
0.000143451
1.48045e-06
0.000143236
1.47474e-06
0.000143023
1.46722e-06
0.00014281
1.45799e-06
0.000142599
1.44721e-06
0.000142389
1.43507e-06
0.00014218
1.42184e-06
0.000141974
1.40781e-06
0.000141769
1.3933e-06
0.000141565
1.37867e-06
0.000141363
1.36428e-06
0.000141163
1.35051e-06
0.000140964
1.33775e-06
0.000140766
1.32639e-06
0.00014057
1.31681e-06
0.000140374
1.30939e-06
0.000140178
1.30452e-06
0.000139983
1.30258e-06
0.000139787
1.30395e-06
0.00013959
1.30903e-06
0.000139393
1.31822e-06
0.000139193
1.33195e-06
0.000138992
1.3507e-06
0.000138788
1.37499e-06
0.00013858
1.4054e-06
0.000138368
1.4426e-06
0.000138152
1.48738e-06
0.00013793
1.54062e-06
0.000137702
1.60338e-06
0.000137467
1.67689e-06
0.000137225
1.76256e-06
0.000136974
1.86207e-06
0.000136715
1.97732e-06
0.000136446
2.11053e-06
0.000136169
2.26425e-06
0.000135882
2.44137e-06
0.000135586
2.64519e-06
0.000135284
2.87938e-06
0.000134979
3.148e-06
0.000134674
3.45545e-06
0.000134376
3.80636e-06
0.000134095
4.2054e-06
0.000133844
4.65697e-06
0.000133642
5.16467e-06
0.000133512
5.73057e-06
0.000133485
6.3541e-06
0.000133598
7.03052e-06
0.000133895
7.749e-06
0.000134419
8.49021e-06
0.000135212
9.22404e-06
0.000136296
9.90818e-06
0.000137663
1.04894e-05
1.09099e-05
0.000139255
0.000159967
2.84943e-07
0.000159898
9.21177e-07
0.000159752
1.60871e-06
0.000159535
2.05784e-06
0.000159274
2.18192e-06
0.000158998
2.08168e-06
0.000158726
1.90525e-06
0.000158466
1.75188e-06
0.00015822
1.6559e-06
0.000157984
1.6116e-06
0.000157754
1.60037e-06
0.000157528
1.60564e-06
0.000157305
1.61706e-06
0.000157082
1.62958e-06
0.000156859
1.64133e-06
0.000156637
1.65195e-06
0.000156414
1.66158e-06
0.00015619
1.67044e-06
0.000155967
1.67868e-06
0.000155743
1.68635e-06
0.000155518
1.69341e-06
0.000155294
1.69974e-06
0.000155069
1.70516e-06
0.000154844
1.70947e-06
0.000154619
1.71244e-06
0.000154394
1.71387e-06
0.000154169
1.71358e-06
0.000153945
1.71144e-06
0.000153721
1.70735e-06
0.000153498
1.7013e-06
0.000153276
1.69331e-06
0.000153054
1.68351e-06
0.000152834
1.67205e-06
0.000152615
1.65915e-06
0.000152397
1.6451e-06
0.000152181
1.63021e-06
0.000151966
1.61484e-06
0.000151752
1.59937e-06
0.00015154
1.58419e-06
0.000151329
1.56973e-06
0.000151118
1.55639e-06
0.000150909
1.5446e-06
0.000150701
1.53479e-06
0.000150493
1.52736e-06
0.000150285
1.52274e-06
0.000150077
1.52133e-06
0.000149869
1.52355e-06
0.00014966
1.52982e-06
0.000149451
1.54056e-06
0.000149239
1.55624e-06
0.000149026
1.57734e-06
0.00014881
1.60439e-06
0.000148592
1.63799e-06
0.000148371
1.67882e-06
0.000148146
1.72764e-06
0.000147916
1.78533e-06
0.000147683
1.85289e-06
0.000147444
1.93149e-06
0.000147201
2.02244e-06
0.000146952
2.12724e-06
0.000146699
2.24761e-06
0.000146442
2.38542e-06
0.000146181
2.5428e-06
0.000145918
2.72207e-06
0.000145655
2.9257e-06
0.000145396
3.15635e-06
0.000145146
3.41673e-06
0.00014491
3.70949e-06
0.000144698
4.0371e-06
0.000144521
4.40155e-06
0.000144392
4.80406e-06
0.000144331
5.2446e-06
0.00014436
5.72129e-06
0.000144503
6.22972e-06
0.00014479
6.76204e-06
0.000145252
7.30608e-06
0.000145917
7.84447e-06
0.000146805
8.3542e-06
0.000147925
8.80697e-06
0.000149262
9.1711e-06
9.41558e-06
0.000150775
0.000171178
2.94637e-07
0.000171122
9.77708e-07
0.000170993
1.73794e-06
0.000170789
2.2614e-06
0.000170532
2.43893e-06
0.00017025
2.36377e-06
0.000169965
2.19001e-06
0.00016969
2.02741e-06
0.000169427
1.91891e-06
0.000169175
1.8635e-06
0.000168932
1.84416e-06
0.000168693
1.84416e-06
0.000168458
1.85244e-06
0.000168225
1.86324e-06
0.000167993
1.87416e-06
0.000167761
1.88446e-06
0.000167529
1.89408e-06
0.000167297
1.90312e-06
0.000167065
1.91164e-06
0.000166832
1.91965e-06
0.0001666
1.92706e-06
0.000166367
1.93374e-06
0.000166134
1.93948e-06
0.000165902
1.94405e-06
0.000165669
1.94724e-06
0.000165436
1.94881e-06
0.000165204
1.94858e-06
0.000164972
1.94642e-06
0.00016474
1.94222e-06
0.000164509
1.93598e-06
0.000164279
1.92773e-06
0.00016405
1.91758e-06
0.000163821
1.90571e-06
0.000163593
1.89236e-06
0.000163366
1.87782e-06
0.00016314
1.86243e-06
0.000162916
1.84656e-06
0.000162692
1.83061e-06
0.000162469
1.81501e-06
0.000162247
1.80019e-06
0.000162026
1.7866e-06
0.000161805
1.77468e-06
0.000161585
1.76489e-06
0.000161366
1.75766e-06
0.000161146
1.75343e-06
0.000160926
1.75262e-06
0.000160707
1.75567e-06
0.000160486
1.76301e-06
0.000160265
1.77508e-06
0.000160043
1.79234e-06
0.000159819
1.81527e-06
0.000159594
1.84439e-06
0.000159367
1.88028e-06
0.000159137
1.92358e-06
0.000158906
1.975e-06
0.000158673
2.03536e-06
0.000158437
2.10554e-06
0.000158199
2.18657e-06
0.000157959
2.27959e-06
0.000157719
2.38585e-06
0.000157478
2.50671e-06
0.000157238
2.64365e-06
0.000157001
2.79823e-06
0.00015677
2.97206e-06
0.000156548
3.16676e-06
0.00015634
3.38387e-06
0.000156151
3.62478e-06
0.00015599
3.89056e-06
0.000155865
4.18181e-06
0.000155788
4.49845e-06
0.000155772
4.8394e-06
0.000155835
5.20232e-06
0.000155993
5.58319e-06
0.000156267
5.976e-06
0.000156676
6.37231e-06
0.000157242
6.76105e-06
0.000157978
7.12838e-06
0.000158894
7.45801e-06
0.000159989
7.7319e-06
0.000161248
7.93181e-06
8.04147e-06
0.000162642
0.000183174
2.99996e-07
0.000183129
1.02247e-06
0.000183016
1.85132e-06
0.000182826
2.45149e-06
0.000182574
2.69006e-06
0.000182289
2.6489e-06
0.000181995
2.48477e-06
0.000181705
2.31683e-06
0.000181427
2.19706e-06
0.000181161
2.13016e-06
0.000180903
2.10158e-06
0.000180653
2.09506e-06
0.000180406
2.09908e-06
0.000180163
2.10727e-06
0.000179921
2.11665e-06
0.00017968
2.12611e-06
0.000179439
2.13533e-06
0.000179199
2.14423e-06
0.000178958
2.15279e-06
0.000178718
2.16093e-06
0.000178478
2.16854e-06
0.000178238
2.17542e-06
0.000177997
2.18137e-06
0.000177757
2.18615e-06
0.000177517
2.18951e-06
0.000177277
2.19121e-06
0.000177038
2.19109e-06
0.000176798
2.18898e-06
0.000176559
2.1848e-06
0.000176321
2.17853e-06
0.000176082
2.17022e-06
0.000175845
2.15997e-06
0.000175608
2.14799e-06
0.000175371
2.1345e-06
0.000175136
2.11981e-06
0.000174901
2.10426e-06
0.000174666
2.08825e-06
0.000174433
2.07218e-06
0.0001742
2.05649e-06
0.000173967
2.04164e-06
0.000173735
2.02809e-06
0.000173504
2.01629e-06
0.000173273
2.00671e-06
0.000173042
1.9998e-06
0.000172811
1.99599e-06
0.00017258
1.99574e-06
0.000172349
1.99947e-06
0.000172118
2.0076e-06
0.000171887
2.02058e-06
0.000171655
2.03882e-06
0.000171423
2.06281e-06
0.00017119
2.09301e-06
0.000170956
2.12994e-06
0.000170722
2.17419e-06
0.000170488
2.22636e-06
0.000170254
2.28714e-06
0.00017002
2.35729e-06
0.000169787
2.43761e-06
0.000169556
2.529e-06
0.000169329
2.63237e-06
0.000169106
2.7487e-06
0.00016889
2.87899e-06
0.000168684
3.02417e-06
0.000168491
3.18516e-06
0.000168315
3.3627e-06
0.000168162
3.55734e-06
0.000168038
3.76932e-06
0.000167951
3.99845e-06
0.00016791
4.24396e-06
0.000167925
4.50436e-06
0.000168009
4.77723e-06
0.000168173
5.0591e-06
0.000168432
5.3452e-06
0.0001688
5.62943e-06
0.00016929
5.9042e-06
0.000169912
6.16057e-06
0.000170673
6.38838e-06
0.000171575
6.57673e-06
0.000172614
6.71463e-06
0.000173775
6.79192e-06
6.80041e-06
0.000175037
0.000196008
3.02119e-07
0.000195973
1.0575e-06
0.000195873
1.95068e-06
0.000195696
2.62859e-06
0.000195452
2.93407e-06
0.000195167
2.93462e-06
0.000194865
2.78676e-06
0.000194564
2.6177e-06
0.000194273
2.48851e-06
0.000193993
2.41033e-06
0.000193722
2.37187e-06
0.00019346
2.35785e-06
0.000193203
2.35666e-06
0.000192949
2.3614e-06
0.000192697
2.36858e-06
0.000192447
2.37668e-06
0.000192198
2.38508e-06
0.00019195
2.39353e-06
0.000191702
2.40186e-06
0.000191454
2.40994e-06
0.000191206
2.41757e-06
0.000190958
2.42454e-06
0.000190711
2.43061e-06
0.000190464
2.43553e-06
0.000190216
2.43903e-06
0.000189969
2.44089e-06
0.000189723
2.44091e-06
0.000189476
2.43895e-06
0.00018923
2.43492e-06
0.000188984
2.4288e-06
0.000188738
2.42064e-06
0.000188492
2.41055e-06
0.000188247
2.39872e-06
0.000188002
2.3854e-06
0.000187758
2.37088e-06
0.000187514
2.3555e-06
0.00018727
2.33967e-06
0.000187027
2.3238e-06
0.000186784
2.30833e-06
0.000186541
2.29371e-06
0.000186299
2.28041e-06
0.000186057
2.26888e-06
0.000185816
2.2596e-06
0.000185574
2.25301e-06
0.000185333
2.24956e-06
0.000185093
2.24966e-06
0.000184852
2.25373e-06
0.000184612
2.26217e-06
0.000184372
2.27539e-06
0.000184133
2.29379e-06
0.000183894
2.31777e-06
0.000183655
2.34774e-06
0.000183418
2.38415e-06
0.000183183
2.42745e-06
0.000182949
2.47814e-06
0.000182718
2.53674e-06
0.00018249
2.60381e-06
0.000182267
2.67991e-06
0.00018205
2.76563e-06
0.000181841
2.86155e-06
0.000181642
2.96823e-06
0.000181456
3.08614e-06
0.000181285
3.21567e-06
0.000181134
3.35706e-06
0.000181008
3.51032e-06
0.000180912
3.67519e-06
0.000180852
3.85106e-06
0.000180836
4.03684e-06
0.000180871
4.23092e-06
0.000180967
4.43107e-06
0.000181132
4.6343e-06
0.000181377
4.83688e-06
0.000181711
5.03424e-06
0.000182142
5.221e-06
0.000182677
5.39105e-06
0.000183323
5.53772e-06
0.00018408
5.65404e-06
0.000184946
5.73311e-06
0.000185915
5.76852e-06
0.000186974
5.75492e-06
5.68851e-06
0.000188108
0.000209739
3.0209e-07
0.000209712
1.08509e-06
0.000209624
2.03845e-06
0.000209459
2.79394e-06
0.000209222
3.17039e-06
0.000208938
3.21887e-06
0.000208632
3.09328e-06
0.000208322
2.9274e-06
0.00020802
2.79113e-06
0.000207728
2.70247e-06
0.000207446
2.65396e-06
0.000207172
2.63184e-06
0.000206904
2.6247e-06
0.000206641
2.62529e-06
0.00020638
2.62967e-06
0.000206122
2.6359e-06
0.000205864
2.64309e-06
0.000205608
2.65076e-06
0.000205352
2.65863e-06
0.000205097
2.66643e-06
0.000204842
2.67394e-06
0.000204587
2.68089e-06
0.000204333
2.687e-06
0.000204078
2.69202e-06
0.000203824
2.69566e-06
0.00020357
2.6977e-06
0.000203316
2.69794e-06
0.000203063
2.69623e-06
0.000202809
2.69249e-06
0.000202555
2.6867e-06
0.000202302
2.6789e-06
0.000202049
2.6692e-06
0.000201796
2.65779e-06
0.000201543
2.6449e-06
0.00020129
2.63082e-06
0.000201037
2.61591e-06
0.000200784
2.60052e-06
0.000200532
2.58509e-06
0.000200279
2.57004e-06
0.000200027
2.55581e-06
0.000199775
2.54287e-06
0.000199524
2.53167e-06
0.000199273
2.52264e-06
0.000199022
2.51624e-06
0.000198772
2.51286e-06
0.000198523
2.51293e-06
0.000198274
2.5168e-06
0.000198027
2.52485e-06
0.000197781
2.53743e-06
0.000197536
2.55487e-06
0.000197293
2.5775e-06
0.000197053
2.60565e-06
0.000196815
2.63964e-06
0.000196581
2.6798e-06
0.000196352
2.72648e-06
0.000196128
2.78e-06
0.000195912
2.84069e-06
0.000195703
2.90888e-06
0.000195505
2.98483e-06
0.000195319
3.06878e-06
0.000195148
3.16088e-06
0.000194994
3.26115e-06
0.000194863
3.36951e-06
0.000194757
3.48563e-06
0.000194681
3.60898e-06
0.00019464
3.73872e-06
0.000194641
3.8737e-06
0.000194689
4.01233e-06
0.00019479
4.15263e-06
0.000194953
4.29212e-06
0.000195183
4.42784e-06
0.000195488
4.55632e-06
0.000195872
4.67367e-06
0.000196341
4.77559e-06
0.000196899
4.85753e-06
0.000197546
4.91487e-06
0.00019828
4.9431e-06
0.000199099
4.93807e-06
0.000199995
4.89635e-06
0.000200959
4.81537e-06
4.6937e-06
0.000201977
0.000224432
3.00846e-07
0.000224409
1.10749e-06
0.000224331
2.11722e-06
0.000224175
2.94918e-06
0.000223947
3.399e-06
0.000223666
3.50012e-06
0.000223357
3.40192e-06
0.000223041
3.24338e-06
0.00022273
3.10269e-06
0.000222428
3.00483e-06
0.000222135
2.94658e-06
0.000221851
2.91613e-06
0.000221574
2.90256e-06
0.000221301
2.89845e-06
0.000221032
2.89951e-06
0.000220765
2.90345e-06
0.000220499
2.90906e-06
0.000220235
2.91567e-06
0.000219972
2.92283e-06
0.00021971
2.9302e-06
0.000219448
2.93745e-06
0.000219186
2.94428e-06
0.000218925
2.95039e-06
0.000218663
2.95548e-06
0.000218402
2.95928e-06
0.000218142
2.96155e-06
0.000217881
2.96209e-06
0.00021762
2.96075e-06
0.000217359
2.95744e-06
0.000217098
2.95214e-06
0.000216837
2.94489e-06
0.000216577
2.93579e-06
0.000216316
2.92501e-06
0.000216054
2.91278e-06
0.000215793
2.89936e-06
0.000215532
2.88509e-06
0.000215271
2.87033e-06
0.00021501
2.85548e-06
0.000214749
2.84094e-06
0.000214488
2.82716e-06
0.000214228
2.81455e-06
0.000213968
2.80355e-06
0.000213708
2.79457e-06
0.00021345
2.78803e-06
0.000213192
2.78429e-06
0.000212936
2.78372e-06
0.000212682
2.78664e-06
0.000212429
2.79335e-06
0.000212179
2.80414e-06
0.000211932
2.81926e-06
0.000211688
2.83894e-06
0.000211449
2.86339e-06
0.000211215
2.89283e-06
0.000210987
2.92744e-06
0.000210766
2.96737e-06
0.000210554
3.01276e-06
0.000210352
3.06373e-06
0.000210162
3.12033e-06
0.000209986
3.18256e-06
0.000209827
3.25033e-06
0.000209687
3.32346e-06
0.00020957
3.4016e-06
0.000209478
3.48428e-06
0.000209417
3.57081e-06
0.00020939
3.66029e-06
0.000209401
3.75156e-06
0.000209456
3.84319e-06
0.000209559
3.93345e-06
0.000209717
4.0203e-06
0.000209932
4.10139e-06
0.000210211
4.1741e-06
0.000210557
4.23555e-06
0.000210973
4.28266e-06
0.000211462
4.31227e-06
0.000212023
4.32122e-06
0.000212657
4.30649e-06
0.00021336
4.26536e-06
0.000214128
4.19559e-06
0.000214954
4.09552e-06
0.00021583
3.96423e-06
3.80154e-06
0.000216747
0.000240153
2.99119e-07
0.000240133
1.12664e-06
0.000240061
2.18943e-06
0.000239914
3.09615e-06
0.000239693
3.62031e-06
0.000239416
3.77733e-06
0.000239107
3.71071e-06
0.000238787
3.56331e-06
0.000238469
3.42098e-06
0.000238159
3.31556e-06
0.000237857
3.2483e-06
0.000237564
3.20963e-06
0.000237277
3.1894e-06
0.000236996
3.18024e-06
0.000236719
3.1776e-06
0.000236444
3.17888e-06
0.000236171
3.18261e-06
0.0002359
3.1879e-06
0.000235629
3.19417e-06
0.00023536
3.20095e-06
0.000235091
3.20785e-06
0.000234823
3.2145e-06
0.000234555
3.22058e-06
0.000234287
3.22576e-06
0.000234019
3.22975e-06
0.000233751
3.23232e-06
0.000233484
3.23325e-06
0.000233216
3.23239e-06
0.000232948
3.22965e-06
0.00023268
3.22499e-06
0.000232412
3.21845e-06
0.000232144
3.2101e-06
0.000231875
3.2001e-06
0.000231606
3.18866e-06
0.000231337
3.17602e-06
0.000231068
3.1625e-06
0.000230799
3.14842e-06
0.00023053
3.13416e-06
0.000230262
3.1201e-06
0.000229993
3.10664e-06
0.000229725
3.09417e-06
0.000229458
3.08309e-06
0.000229193
3.07376e-06
0.000228928
3.06656e-06
0.000228665
3.0618e-06
0.000228404
3.05978e-06
0.000228146
3.06075e-06
0.000227892
3.06496e-06
0.000227641
3.07258e-06
0.000227394
3.08379e-06
0.000227153
3.0987e-06
0.000226919
3.11742e-06
0.000226691
3.14001e-06
0.000226473
3.16651e-06
0.000226264
3.1969e-06
0.000226068
3.23115e-06
0.000225884
3.26915e-06
0.000225717
3.31075e-06
0.000225567
3.35569e-06
0.000225437
3.40363e-06
0.00022533
3.45414e-06
0.000225249
3.50661e-06
0.000225198
3.56034e-06
0.000225179
3.6144e-06
0.000225197
3.66773e-06
0.000225255
3.71904e-06
0.000225357
3.76688e-06
0.000225507
3.80957e-06
0.000225708
3.84526e-06
0.000225963
3.87195e-06
0.000226276
3.88751e-06
0.000226649
3.8897e-06
0.000227082
3.87629e-06
0.000227575
3.84509e-06
0.000228129
3.79407e-06
0.000228741
3.72141e-06
0.000229407
3.62564e-06
0.000230123
3.50572e-06
0.000230884
3.3611e-06
0.000231683
3.19176e-06
2.99819e-06
0.000232513
0.000256974
2.97434e-07
0.000256956
1.14414e-06
0.000256889
2.25723e-06
0.000256748
3.23663e-06
0.000256534
3.83499e-06
0.000256261
4.04989e-06
0.000255954
4.01803e-06
0.000255632
3.88514e-06
0.000255309
3.7439e-06
0.000254992
3.63276e-06
0.000254683
3.55753e-06
0.000254382