/*--------------------------------*- C++ -*----------------------------------*\
| =========                 |                                                 |
| \\      /  F ield         | OpenFOAM: The Open Source CFD Toolbox           |
|  \\    /   O peration     | Version:  4.1                                   |
|   \\  /    A nd           | Web:      www.OpenFOAM.org                      |
|    \\/     M anipulation  |                                                 |
\*---------------------------------------------------------------------------*/
FoamFile
{
    version     2.0;
    format      ascii;
    class       surfaceScalarField;
    location    "1";
    object      phi;
}
// * * * * * * * * * * * * * * * * * * * * * * * * * * * * * * * * * * * * * //

dimensions      [1 0 -1 0 0 0 0];

internalField   nonuniform List<scalar> 
23692
(
2.32736e-06
-3.68012e-10
2.32795e-06
-5.86604e-10
2.32859e-06
-6.40336e-10
2.3291e-06
-5.0881e-10
2.32932e-06
-2.1005e-10
2.32912e-06
2.06959e-10
2.32846e-06
6.69605e-10
2.32737e-06
1.1008e-09
2.32595e-06
1.44033e-09
2.3243e-06
1.65727e-09
2.32257e-06
1.75062e-09
2.32085e-06
1.74116e-09
2.31921e-06
1.65973e-09
2.3177e-06
1.53719e-09
2.31633e-06
1.39798e-09
2.3151e-06
1.25819e-09
2.31401e-06
1.12594e-09
2.31304e-06
1.00376e-09
2.31219e-06
8.90736e-10
2.31145e-06
7.84507e-10
2.31081e-06
6.82421e-10
2.31027e-06
5.82216e-10
2.30984e-06
4.82309e-10
2.30952e-06
3.81761e-10
2.30929e-06
2.80053e-10
2.30918e-06
1.77136e-10
2.30917e-06
7.30785e-11
2.30927e-06
-3.17241e-11
2.30948e-06
-1.36934e-10
2.30979e-06
-2.42159e-10
2.31022e-06
-3.46868e-10
2.31075e-06
-4.50626e-10
2.31139e-06
-5.52909e-10
2.31213e-06
-6.53073e-10
2.31297e-06
-7.50548e-10
2.31391e-06
-8.44678e-10
2.31494e-06
-9.34643e-10
2.31606e-06
-1.0197e-09
2.31726e-06
-1.09885e-09
2.31853e-06
-1.17121e-09
2.31987e-06
-1.23566e-09
2.32127e-06
-1.29107e-09
2.32272e-06
-1.33613e-09
2.3242e-06
-1.36953e-09
2.32571e-06
-1.38977e-09
2.32722e-06
-1.39529e-09
2.32872e-06
-1.38433e-09
2.3302e-06
-1.35504e-09
2.33162e-06
-1.30535e-09
2.33298e-06
-1.23302e-09
2.33424e-06
-1.1355e-09
2.33537e-06
-1.00995e-09
2.33635e-06
-8.53254e-10
2.33714e-06
-6.61719e-10
2.3377e-06
-4.31175e-10
2.33798e-06
-1.56759e-10
2.33794e-06
1.67101e-10
2.33752e-06
5.47271e-10
2.33666e-06
9.91722e-10
2.33528e-06
1.5101e-09
2.33329e-06
2.11418e-09
2.33061e-06
2.81845e-09
2.32709e-06
3.64093e-09
2.32262e-06
4.60423e-09
2.31701e-06
5.73722e-09
2.31006e-06
7.07705e-09
2.30151e-06
8.67233e-09
2.29105e-06
1.05877e-08
2.27827e-06
1.29103e-08
2.26263e-06
1.57603e-08
2.24345e-06
1.93059e-08
2.21979e-06
2.3788e-08
2.19035e-06
2.95585e-08
2.15333e-06
3.71429e-08
2.10611e-06
4.73423e-08
2.04483e-06
6.14e-08
1.96368e-06
8.12672e-08
1.85375e-06
1.10054e-07
1.70079e-06
1.53073e-07
1.4805e-06
2.204e-07
3.38958e-07
1.14166e-06
2.49037e-06
-7.57755e-10
2.491e-06
-1.21597e-09
2.4917e-06
-1.32998e-09
2.49225e-06
-1.05979e-09
2.4925e-06
-4.43455e-10
2.49229e-06
4.18405e-10
2.4916e-06
1.3756e-09
2.49044e-06
2.26878e-09
2.48892e-06
2.97314e-09
2.48717e-06
3.42433e-09
2.48532e-06
3.61994e-09
2.48348e-06
3.60257e-09
2.48173e-06
3.43603e-09
2.48011e-06
3.1839e-09
2.47864e-06
2.89704e-09
2.47732e-06
2.60852e-09
2.47615e-06
2.33549e-09
2.47511e-06
2.08315e-09
2.47419e-06
1.84972e-09
2.47339e-06
1.63037e-09
2.4727e-06
1.41957e-09
2.47212e-06
1.21281e-09
2.47165e-06
1.00675e-09
2.47129e-06
7.99352e-10
2.47104e-06
5.89742e-10
2.47091e-06
3.77669e-10
2.47089e-06
1.63456e-10
2.47098e-06
-5.23338e-11
2.47119e-06
-2.68864e-10
2.47151e-06
-4.85334e-10
2.47195e-06
-7.00718e-10
2.4725e-06
-9.14009e-10
2.47316e-06
-1.12415e-09
2.47393e-06
-1.32991e-09
2.47481e-06
-1.53001e-09
2.47578e-06
-1.72306e-09
2.47686e-06
-1.90753e-09
2.47803e-06
-2.0817e-09
2.47928e-06
-2.24373e-09
2.48061e-06
-2.39157e-09
2.48201e-06
-2.52303e-09
2.48347e-06
-2.63572e-09
2.48498e-06
-2.72703e-09
2.48653e-06
-2.7942e-09
2.4881e-06
-2.83421e-09
2.48967e-06
-2.84374e-09
2.49123e-06
-2.81928e-09
2.49276e-06
-2.75699e-09
2.49424e-06
-2.65261e-09
2.49564e-06
-2.50151e-09
2.49693e-06
-2.29851e-09
2.49809e-06
-2.03784e-09
2.49909e-06
-1.71298e-09
2.49988e-06
-1.31654e-09
2.50042e-06
-8.40022e-10
2.50068e-06
-2.73313e-10
2.50059e-06
3.94637e-10
2.50009e-06
1.17797e-09
2.49913e-06
2.09264e-09
2.49762e-06
3.15817e-09
2.49547e-06
4.39824e-09
2.49259e-06
5.84188e-09
2.48884e-06
7.52506e-09
2.48409e-06
9.49275e-09
2.47816e-06
1.18019e-08
2.47085e-06
1.45255e-08
2.4619e-06
1.77582e-08
2.451e-06
2.16246e-08
2.43776e-06
2.6291e-08
2.42167e-06
3.19832e-08
2.40209e-06
3.90117e-08
2.3782e-06
4.78118e-08
2.34889e-06
5.90014e-08
2.3127e-06
7.34699e-08
2.26766e-06
9.2508e-08
2.2112e-06
1.17987e-07
2.14003e-06
1.52562e-07
2.05039e-06
1.99826e-07
1.93928e-06
2.64306e-07
1.81005e-06
3.49748e-07
4.45906e-07
1.70323e-06
2.66481e-06
-1.16951e-09
2.66548e-06
-1.89138e-09
2.66623e-06
-2.07336e-09
2.66684e-06
-1.66049e-09
2.66711e-06
-7.10228e-10
2.66692e-06
6.22468e-10
2.6662e-06
2.10577e-09
2.66499e-06
3.49281e-09
2.66339e-06
4.58977e-09
2.66153e-06
5.29592e-09
2.65957e-06
5.60649e-09
2.65761e-06
5.5866e-09
2.65573e-06
5.33424e-09
2.654e-06
4.9479e-09
2.65242e-06
4.50631e-09
2.651e-06
4.06109e-09
2.64974e-06
3.63903e-09
2.64861e-06
3.24859e-09
2.64762e-06
2.88722e-09
2.64675e-06
2.54764e-09
2.646e-06
2.22152e-09
2.64536e-06
1.90183e-09
2.64485e-06
1.58348e-09
2.64445e-06
1.26341e-09
2.64416e-06
9.40128e-10
2.644e-06
6.13256e-10
2.64395e-06
2.83315e-10
2.64402e-06
-4.88053e-11
2.64422e-06
-3.81911e-10
2.64453e-06
-7.14602e-10
2.64497e-06
-1.04543e-09
2.64552e-06
-1.37287e-09
2.64619e-06
-1.69514e-09
2.64697e-06
-2.01047e-09
2.64786e-06
-2.31687e-09
2.64885e-06
-2.61208e-09
2.64995e-06
-2.89385e-09
2.65114e-06
-3.15946e-09
2.65242e-06
-3.40608e-09
2.65378e-06
-3.63056e-09
2.6552e-06
-3.82955e-09
2.65669e-06
-3.9993e-09
2.65823e-06
-4.13588e-09
2.6598e-06
-4.23494e-09
2.66139e-06
-4.29185e-09
2.66298e-06
-4.30161e-09
2.66455e-06
-4.25872e-09
2.66609e-06
-4.15728e-09
2.66757e-06
-3.99086e-09
2.66896e-06
-3.7523e-09
2.67023e-06
-3.43371e-09
2.67137e-06
-3.02629e-09
2.67232e-06
-2.52012e-09
2.67305e-06
-1.90393e-09
2.67352e-06
-1.16479e-09
2.67368e-06
-2.87681e-10
2.67348e-06
7.44634e-10
2.67285e-06
1.95273e-09
2.67173e-06
3.36078e-09
2.67004e-06
4.99786e-09
2.66768e-06
6.8991e-09
2.66456e-06
9.10731e-09
2.66056e-06
1.16751e-08
2.65553e-06
1.4668e-08
2.64931e-06
1.81681e-08
2.64171e-06
2.22794e-08
2.63248e-06
2.71354e-08
2.62134e-06
3.29091e-08
2.60794e-06
3.98271e-08
2.59188e-06
4.81904e-08
2.57263e-06
5.84023e-08
2.54958e-06
7.10083e-08
2.52197e-06
8.67514e-08
2.48893e-06
1.06643e-07
2.44953e-06
1.32049e-07
2.4029e-06
1.6476e-07
2.34863e-06
2.06969e-07
2.28763e-06
2.60957e-07
2.22402e-06
3.28051e-07
2.16867e-06
4.05229e-07
4.75472e-07
2.13923e-06
2.85146e-06
-1.60526e-09
2.85219e-06
-2.61581e-09
2.85299e-06
-2.87619e-09
2.85366e-06
-2.3204e-09
2.85398e-06
-1.02349e-09
2.85381e-06
8.03135e-10
2.85308e-06
2.84246e-09
2.85184e-06
4.75587e-09
2.85017e-06
6.27581e-09
2.84822e-06
7.26199e-09
2.84614e-06
7.70518e-09
2.84406e-06
7.6928e-09
2.84206e-06
7.35822e-09
2.84021e-06
6.83613e-09
2.83851e-06
6.23484e-09
2.83698e-06
5.626e-09
2.83562e-06
5.04709e-09
2.8344e-06
4.51055e-09
2.83332e-06
4.01355e-09
2.83237e-06
3.54644e-09
2.83155e-06
3.09817e-09
2.83085e-06
2.65918e-09
2.83027e-06
2.2226e-09
2.82982e-06
1.78421e-09
2.82949e-06
1.34189e-09
2.82928e-06
8.95226e-10
2.8292e-06
4.44772e-10
2.82924e-06
-8.17056e-12
2.82941e-06
-4.61995e-10
2.8297e-06
-9.14876e-10
2.83012e-06
-1.36475e-09
2.83065e-06
-1.80952e-09
2.83131e-06
-2.2468e-09
2.83208e-06
-2.67409e-09
2.83296e-06
-3.08866e-09
2.83395e-06
-3.48756e-09
2.83504e-06
-3.86748e-09
2.83623e-06
-4.22482e-09
2.8375e-06
-4.55569e-09
2.83885e-06
-4.85578e-09
2.84027e-06
-5.12046e-09
2.84175e-06
-5.3447e-09
2.84327e-06
-5.52305e-09
2.84483e-06
-5.64967e-09
2.84639e-06
-5.71818e-09
2.84796e-06
-5.72178e-09
2.8495e-06
-5.65307e-09
2.85099e-06
-5.50404e-09
2.85241e-06
-5.26591e-09
2.85374e-06
-4.92906e-09
2.85494e-06
-4.48285e-09
2.85598e-06
-3.91543e-09
2.85683e-06
-3.21347e-09
2.85744e-06
-2.36193e-09
2.85778e-06
-1.34358e-09
2.85778e-06
-1.38502e-10
2.85741e-06
1.2762e-09
2.85659e-06
2.92737e-09
2.85526e-06
4.84674e-09
2.85335e-06
7.07209e-09
2.85076e-06
9.64875e-09
2.84739e-06
1.26315e-08
2.84314e-06
1.60873e-08
2.83786e-06
2.00981e-08
2.83142e-06
2.47658e-08
2.82364e-06
3.02175e-08
2.81432e-06
3.66134e-08
2.80323e-06
4.41568e-08
2.7901e-06
5.31078e-08
2.77464e-06
6.38012e-08
2.75653e-06
7.66696e-08
2.73542e-06
9.22727e-08
2.71099e-06
1.11331e-07
2.68302e-06
1.34759e-07
2.65154e-06
1.63677e-07
2.61707e-06
1.99374e-07
2.58108e-06
2.43107e-07
2.54659e-06
2.95586e-07
2.51897e-06
3.5582e-07
2.5056e-06
4.18736e-07
4.71238e-07
2.50998e-06
3.05118e-06
-2.06671e-09
3.05196e-06
-3.3922e-09
3.05284e-06
-3.74537e-09
3.05357e-06
-3.05076e-09
3.05396e-06
-1.39976e-09
3.05383e-06
9.39496e-10
3.05313e-06
3.56242e-09
3.05186e-06
6.03458e-09
3.05015e-06
8.01077e-09
3.04812e-06
9.30668e-09
3.04594e-06
9.90617e-09
3.04375e-06
9.91751e-09
3.04162e-06
9.5094e-09
3.03964e-06
8.85405e-09
3.03782e-06
8.09085e-09
3.03617e-06
7.31297e-09
3.03469e-06
6.57011e-09
3.03337e-06
5.87952e-09
3.03219e-06
5.23889e-09
3.03116e-06
4.63666e-09
3.03026e-06
4.05914e-09
3.02948e-06
3.49434e-09
3.02884e-06
2.93357e-09
3.02832e-06
2.37144e-09
3.02794e-06
1.80522e-09
3.02768e-06
1.23431e-09
3.02755e-06
6.59388e-10
3.02755e-06
8.20134e-11
3.02767e-06
-4.95709e-10
3.02793e-06
-1.07144e-09
3.02831e-06
-1.6426e-09
3.02881e-06
-2.20643e-09
3.02943e-06
-2.75995e-09
3.03017e-06
-3.29989e-09
3.03103e-06
-3.82277e-09
3.03199e-06
-4.32473e-09
3.03304e-06
-4.8016e-09
3.0342e-06
-5.24877e-09
3.03544e-06
-5.66119e-09
3.03675e-06
-6.03344e-09
3.03813e-06
-6.35956e-09
3.03956e-06
-6.63313e-09
3.04103e-06
-6.84727e-09
3.04252e-06
-6.99448e-09
3.04402e-06
-7.06674e-09
3.04551e-06
-7.05535e-09
3.04696e-06
-6.951e-09
3.04835e-06
-6.74356e-09
3.04967e-06
-6.42197e-09
3.05088e-06
-5.97416e-09
3.05194e-06
-5.38679e-09
3.05283e-06
-4.64506e-09
3.05352e-06
-3.73247e-09
3.05395e-06
-2.63028e-09
3.05409e-06
-1.31727e-09
3.05389e-06
2.30897e-10
3.05329e-06
2.0421e-09
3.05224e-06
4.14881e-09
3.05067e-06
6.58916e-09
3.0485e-06
9.40813e-09
3.04566e-06
1.26592e-08
3.04205e-06
1.64064e-08
3.03758e-06
2.07267e-08
3.03213e-06
2.57134e-08
3.02559e-06
3.14802e-08
3.01781e-06
3.81666e-08
3.00864e-06
4.59439e-08
2.99794e-06
5.50242e-08
2.98554e-06
6.56701e-08
2.9713e-06
7.82069e-08
2.9551e-06
9.3036e-08
2.93689e-06
1.10648e-07
2.91675e-06
1.31633e-07
2.89499e-06
1.56672e-07
2.87232e-06
1.86503e-07
2.85004e-06
2.21816e-07
2.83029e-06
2.63013e-07
2.81628e-06
3.09751e-07
2.81211e-06
3.60146e-07
2.8214e-06
4.09596e-07
4.49656e-07
2.84313e-06
3.2649e-06
-2.55581e-09
3.26573e-06
-4.22456e-09
3.26668e-06
-4.68874e-09
3.2675e-06
-3.86495e-09
3.26797e-06
-1.85858e-09
3.26792e-06
1.00623e-09
3.26726e-06
4.23629e-09
3.26601e-06
7.29923e-09
3.26427e-06
9.76746e-09
3.26219e-06
1.14083e-08
3.25993e-06
1.21946e-08
3.25762e-06
1.22529e-08
3.25538e-06
1.17865e-08
3.25326e-06
1.10053e-08
3.25131e-06
1.00814e-08
3.24953e-06
9.13099e-09
3.24793e-06
8.21779e-09
3.24649e-06
7.36549e-09
3.24521e-06
6.57303e-09
3.24408e-06
5.82763e-09
3.24309e-06
5.11334e-09
3.24223e-06
4.41601e-09
3.24152e-06
3.7251e-09
3.24093e-06
3.03399e-09
3.24048e-06
2.33941e-09
3.24016e-06
1.6404e-09
3.23997e-06
9.37809e-10
3.23991e-06
2.33483e-10
3.23999e-06
-4.70133e-10
3.24019e-06
-1.17015e-09
3.24052e-06
-1.86341e-09
3.24097e-06
-2.54647e-09
3.24154e-06
-3.21571e-09
3.24223e-06
-3.86712e-09
3.24303e-06
-4.49637e-09
3.24394e-06
-5.0988e-09
3.24494e-06
-5.66914e-09
3.24603e-06
-6.20186e-09
3.2472e-06
-6.69079e-09
3.24844e-06
-7.12921e-09
3.24974e-06
-7.50993e-09
3.25109e-06
-7.82515e-09
3.25246e-06
-8.06642e-09
3.25385e-06
-8.22469e-09
3.25523e-06
-8.29024e-09
3.25659e-06
-8.25261e-09
3.25791e-06
-8.10056e-09
3.25916e-06
-7.82188e-09
3.26031e-06
-7.40339e-09
3.26133e-06
-6.83061e-09
3.26221e-06
-6.08773e-09
3.2629e-06
-5.15726e-09
3.26336e-06
-4.01966e-09
3.26356e-06
-2.65309e-09
3.26345e-06
-1.03281e-09
3.26299e-06
8.69205e-10
3.26213e-06
3.08485e-09
3.26081e-06
5.65104e-09
3.25897e-06
8.61068e-09
3.25654e-06
1.20138e-08
3.25346e-06
1.59192e-08
3.24965e-06
2.03961e-08
3.24503e-06
2.55266e-08
3.23952e-06
3.14083e-08
3.23302e-06
3.81578e-08
3.22545e-06
4.59141e-08
3.21673e-06
5.48438e-08
3.20679e-06
6.51458e-08
3.19558e-06
7.70568e-08
3.18311e-06
9.08562e-08
3.16945e-06
1.0687e-07
3.1548e-06
1.25467e-07
3.13955e-06
1.47055e-07
3.12435e-06
1.72045e-07
3.11023e-06
2.00798e-07
3.09869e-06
2.33515e-07
3.09183e-06
2.70041e-07
3.09219e-06
3.09564e-07
3.1023e-06
3.50193e-07
3.12354e-06
3.88523e-07
4.19531e-07
3.15382e-06
3.49358e-06
-3.07431e-09
3.49448e-06
-5.11676e-09
3.49551e-06
-5.71469e-09
3.49643e-06
-4.77747e-09
3.497e-06
-2.422e-09
3.49705e-06
9.74062e-10
3.49647e-06
4.83024e-09
3.49527e-06
8.51427e-09
3.49355e-06
1.15127e-08
3.49144e-06
1.35392e-08
3.48911e-06
1.45502e-08
3.48671e-06
1.46867e-08
3.48434e-06
1.41843e-08
3.48209e-06
1.32907e-08
3.48001e-06
1.22112e-08
3.47809e-06
1.10876e-08
3.47636e-06
9.99912e-09
3.4748e-06
8.97761e-09
3.47341e-06
8.02492e-09
3.47217e-06
7.12791e-09
3.47108e-06
6.26905e-09
3.47014e-06
5.43218e-09
3.46934e-06
4.60513e-09
3.46867e-06
3.78008e-09
3.46814e-06
2.95299e-09
3.46775e-06
2.12272e-09
3.4675e-06
1.29005e-09
3.46738e-06
4.57119e-10
3.46739e-06
-3.73216e-10
3.46752e-06
-1.19754e-09
3.46779e-06
-2.01214e-09
3.46818e-06
-2.81293e-09
3.46868e-06
-3.59559e-09
3.4693e-06
-4.35534e-09
3.47003e-06
-5.08699e-09
3.47085e-06
-5.78493e-09
3.47177e-06
-6.44307e-09
3.47277e-06
-7.05466e-09
3.47384e-06
-7.61245e-09
3.47498e-06
-8.10856e-09
3.47616e-06
-8.53445e-09
3.47738e-06
-8.88095e-09
3.47862e-06
-9.13818e-09
3.47986e-06
-9.29554e-09
3.48108e-06
-9.3417e-09
3.48227e-06
-9.26444e-09
3.48339e-06
-9.05073e-09
3.48444e-06
-8.68647e-09
3.48537e-06
-8.15644e-09
3.48617e-06
-7.44412e-09
3.4868e-06
-6.53146e-09
3.48723e-06
-5.3986e-09
3.48742e-06
-4.0236e-09
3.48734e-06
-2.38201e-09
3.48694e-06
-4.46422e-10
3.48619e-06
1.81379e-09
3.48503e-06
4.43331e-09
3.48342e-06
7.45188e-09
3.48131e-06
1.0915e-08
3.47864e-06
1.4875e-08
3.47536e-06
1.93925e-08
3.47142e-06
2.45374e-08
3.46674e-06
3.03911e-08
3.4613e-06
3.70482e-08
3.45503e-06
4.46182e-08
3.44791e-06
5.32285e-08
3.43992e-06
6.30257e-08
3.43107e-06
7.41777e-08
3.42145e-06
8.68744e-08
3.41116e-06
1.01327e-07
3.40046e-06
1.17761e-07
3.3897e-06
1.36413e-07
3.37944e-06
1.57501e-07
3.37046e-06
1.81202e-07
3.36386e-06
2.07588e-07
3.361e-06
2.36547e-07
3.36356e-06
2.67658e-07
3.37327e-06
3.00031e-07
3.39151e-06
3.32136e-07
3.4185e-06
3.61703e-07
3.8588e-07
3.45232e-06
3.73829e-06
-3.6239e-09
3.73925e-06
-6.07262e-09
3.74037e-06
-6.8317e-09
3.7414e-06
-5.80342e-09
3.7421e-06
-3.11327e-09
3.74228e-06
8.11964e-10
3.74182e-06
5.307e-09
3.74071e-06
9.64002e-09
3.73904e-06
1.32084e-08
3.73694e-06
1.56664e-08
3.73457e-06
1.69477e-08
3.73208e-06
1.7202e-08
3.72961e-06
1.66941e-08
3.72723e-06
1.57077e-08
3.725e-06
1.4483e-08
3.72295e-06
1.31883e-08
3.72108e-06
1.19212e-08
3.71939e-06
1.07238e-08
3.71788e-06
9.60256e-09
3.71653e-06
8.54534e-09
3.71533e-06
7.53376e-09
3.71429e-06
6.55017e-09
3.7134e-06
5.58096e-09
3.71265e-06
4.61709e-09
3.71204e-06
3.65387e-09
3.71157e-06
2.68978e-09
3.71124e-06
1.72559e-09
3.71104e-06
7.63559e-10
3.71097e-06
-1.93018e-10
3.71104e-06
-1.1403e-09
3.71122e-06
-2.07395e-09
3.71153e-06
-2.98919e-09
3.71195e-06
-3.88111e-09
3.71248e-06
-4.74401e-09
3.71311e-06
-5.57194e-09
3.71383e-06
-6.35833e-09
3.71463e-06
-7.09608e-09
3.71551e-06
-7.77744e-09
3.71646e-06
-8.39406e-09
3.71745e-06
-8.93684e-09
3.71848e-06
-9.39602e-09
3.71954e-06
-9.76109e-09
3.7206e-06
-1.00208e-08
3.72165e-06
-1.0163e-08
3.72266e-06
-1.0175e-08
3.72363e-06
-1.00431e-08
3.72452e-06
-9.7524e-09
3.72531e-06
-9.28731e-09
3.72598e-06
-8.63087e-09
3.7265e-06
-7.76481e-09
3.72683e-06
-6.66926e-09
3.72696e-06
-5.32261e-09
3.72683e-06
-3.70115e-09
3.72643e-06
-1.77865e-09
3.72572e-06
4.73763e-10
3.72465e-06
3.08808e-09
3.72319e-06
6.10029e-09
3.72129e-06
9.55085e-09
3.71893e-06
1.34854e-08
3.71605e-06
1.79555e-08
3.71263e-06
2.30195e-08
3.70864e-06
2.87435e-08
3.70403e-06
3.52023e-08
3.6988e-06
4.24803e-08
3.69296e-06
5.06722e-08
3.68651e-06
5.98834e-08
3.67951e-06
7.023e-08
3.67205e-06
8.18376e-08
3.66429e-06
9.48387e-08
3.65645e-06
1.09368e-07
3.64886e-06
1.25553e-07
3.64197e-06
1.43503e-07
3.63638e-06
1.63287e-07
3.63287e-06
1.84908e-07
3.63239e-06
2.08259e-07
3.63606e-06
2.33077e-07
3.64503e-06
2.58874e-07
3.66038e-06
2.84874e-07
3.68273e-06
3.0997e-07
3.71189e-06
3.32737e-07
3.51593e-07
3.74636e-06
4.00013e-06
-4.20605e-09
4.00116e-06
-7.0957e-09
4.00238e-06
-8.0476e-09
4.00354e-06
-6.95704e-09
4.00439e-06
-3.95465e-09
4.00473e-06
4.88969e-10
4.00442e-06
5.62885e-09
4.00345e-06
1.06352e-08
4.00187e-06
1.48139e-08
3.99981e-06
1.77536e-08
3.99743e-06
1.93574e-08
3.99489e-06
1.97774e-08
3.99232e-06
1.93021e-08
3.98982e-06
1.825e-08
3.98745e-06
1.68954e-08
3.98525e-06
1.54356e-08
3.98324e-06
1.39889e-08
3.98142e-06
1.26102e-08
3.97977e-06
1.13126e-08
3.9783e-06
1.00867e-08
3.977e-06
8.91432e-09
3.97585e-06
7.77691e-09
3.97486e-06
6.65962e-09
3.97402e-06
5.55256e-09
3.97332e-06
4.45012e-09
3.97277e-06
3.35045e-09
3.97235e-06
2.25416e-09
3.97206e-06
1.16374e-09
3.97191e-06
8.26892e-11
3.97188e-06
-9.8463e-10
3.97197e-06
-2.03331e-09
3.97218e-06
-3.05798e-09
3.9725e-06
-4.05297e-09
3.97291e-06
-5.01187e-09
3.97342e-06
-5.92773e-09
3.97402e-06
-6.79318e-09
3.97468e-06
-7.60016e-09
3.97542e-06
-8.33987e-09
3.9762e-06
-9.00287e-09
3.97702e-06
-9.57899e-09
3.97786e-06
-1.00573e-08
3.97871e-06
-1.0426e-08
3.97955e-06
-1.06727e-08
3.98037e-06
-1.0784e-08
3.98113e-06
-1.07457e-08
3.98183e-06
-1.05429e-08
3.98244e-06
-1.01594e-08
3.98294e-06
-9.57824e-09
3.98329e-06
-8.78115e-09
3.98349e-06
-7.74861e-09
3.98349e-06
-6.45958e-09
3.98327e-06
-4.89138e-09
3.9828e-06
-3.01933e-09
3.98206e-06
-8.16602e-10
3.981e-06
1.74592e-09
3.97961e-06
4.70013e-09
3.97785e-06
8.08145e-09
3.97569e-06
1.19289e-08
3.97311e-06
1.62855e-08
3.97009e-06
2.11988e-08
3.96661e-06
2.67214e-08
3.96266e-06
3.29111e-08
3.95825e-06
3.9831e-08
3.9534e-06
4.75497e-08
3.94816e-06
5.6141e-08
3.94258e-06
6.56824e-08
3.93677e-06
7.62539e-08
3.93089e-06
8.79349e-08
3.92515e-06
1.008e-07
3.91982e-06
1.14913e-07
3.91527e-06
1.30317e-07
3.91196e-06
1.47024e-07
3.91046e-06
1.64999e-07
3.91143e-06
1.84141e-07
3.91564e-06
2.04258e-07
3.92388e-06
2.25044e-07
3.93691e-06
2.46053e-07
3.9553e-06
2.66686e-07
3.97928e-06
2.86188e-07
4.00852e-06
3.03699e-07
3.18349e-07
4.04196e-06
4.28031e-06
-4.82176e-09
4.28141e-06
-8.18856e-09
4.28273e-06
-9.36873e-09
4.28404e-06
-8.25018e-09
4.28506e-06
-4.96568e-09
4.28559e-06
-2.24803e-11
4.28547e-06
5.7611e-09
4.28467e-06
1.14608e-08
4.28322e-06
1.6289e-08
4.28124e-06
1.9763e-08
4.27888e-06
2.17472e-08
4.2763e-06
2.23875e-08
4.27366e-06
2.19907e-08
4.27105e-06
2.09064e-08
4.26855e-06
1.94432e-08
4.26621e-06
1.78287e-08
4.26405e-06
1.62044e-08
4.26209e-06
1.46408e-08
4.26031e-06
1.31604e-08
4.25872e-06
1.1758e-08
4.25729e-06
1.04171e-08
4.25604e-06
9.11915e-09
4.25494e-06
7.84851e-09
4.254e-06
6.59436e-09
4.25321e-06
5.35048e-09
4.25255e-06
4.11442e-09
4.25204e-06
2.88675e-09
4.25166e-06
1.66987e-09
4.2514e-06
4.67666e-10
4.25127e-06
-7.15153e-10
4.25125e-06
-1.87309e-09
4.25134e-06
-3.00017e-09
4.25153e-06
-4.09009e-09
4.25181e-06
-5.13566e-09
4.25218e-06
-6.12907e-09
4.25262e-06
-7.06198e-09
4.25312e-06
-7.9255e-09
4.25367e-06
-8.70992e-09
4.25425e-06
-9.40477e-09
4.25486e-06
-9.99885e-09
4.25548e-06
-1.04802e-08
4.25609e-06
-1.0836e-08
4.25667e-06
-1.10527e-08
4.25721e-06
-1.1116e-08
4.25768e-06
-1.10106e-08
4.25807e-06
-1.07205e-08
4.25836e-06
-1.02287e-08
4.25852e-06
-9.51729e-09
4.25852e-06
-8.5672e-09
4.25836e-06
-7.35831e-09
4.25799e-06
-5.86911e-09
4.2574e-06
-4.07666e-09
4.25657e-06
-1.95641e-09
4.25547e-06
5.17818e-10
4.25407e-06
3.37399e-09
4.25236e-06
6.6425e-09
4.25032e-06
1.03561e-08
4.24794e-06
1.45501e-08
4.2452e-06
1.92626e-08
4.2421e-06
2.45341e-08
4.23865e-06
3.04082e-08
4.23486e-06
3.69308e-08
4.23078e-06
4.41501e-08
4.22645e-06
5.21153e-08
4.22195e-06
6.0876e-08
4.21739e-06
7.048e-08
4.2129e-06
8.09711e-08
4.20869e-06
9.23852e-08
4.20497e-06
1.04747e-07
4.20205e-06
1.18062e-07
4.20029e-06
1.32312e-07
4.2001e-06
1.47444e-07
4.20196e-06
1.63365e-07
4.2064e-06
1.79925e-07
4.21397e-06
1.96911e-07
4.2252e-06
2.14038e-07
4.24052e-06
2.30946e-07
4.26023e-06
2.47199e-07
4.28433e-06
2.62305e-07
4.31248e-06
2.75755e-07
2.87076e-07
4.34397e-06
4.58011e-06
-5.4717e-09
4.58128e-06
-9.35255e-09
4.58272e-06
-1.07988e-08
4.58417e-06
-9.69081e-09
4.58538e-06
-6.16009e-09
4.58611e-06
-7.43225e-10
4.58622e-06
5.67602e-09
4.58562e-06
1.20835e-08
4.58433e-06
1.75978e-08
4.58247e-06
2.1659e-08
4.58017e-06
2.40845e-08
4.57759e-06
2.50049e-08
4.57488e-06
2.47383e-08
4.57218e-06
2.36615e-08
4.56956e-06
2.21165e-08
4.56708e-06
2.03624e-08
4.56478e-06
1.85662e-08
4.56268e-06
1.68172e-08
4.56076e-06
1.51493e-08
4.55904e-06
1.35643e-08
4.55749e-06
1.20485e-08
4.55612e-06
1.05843e-08
4.55491e-06
9.15604e-09
4.55386e-06
7.75203e-09
4.55296e-06
6.36553e-09
4.5522e-06
4.99366e-09
4.55157e-06
3.63663e-09
4.55108e-06
2.29693e-09
4.55071e-06
9.78538e-10
4.55045e-06
-3.13428e-10
4.5503e-06
-1.573e-09
4.55025e-06
-2.7933e-09
4.55029e-06
-3.96806e-09
4.55042e-06
-5.089e-09
4.55061e-06
-6.14726e-09
4.55086e-06
-7.13397e-09
4.55116e-06
-8.03936e-09
4.5515e-06
-8.85284e-09
4.55185e-06
-9.56314e-09
4.55221e-06
-1.01581e-08
4.55257e-06
-1.0625e-08
4.55289e-06
-1.09502e-08
4.55317e-06
-1.11193e-08
4.55339e-06
-1.11171e-08
4.55354e-06
-1.09279e-08
4.55358e-06
-1.05349e-08
4.5535e-06
-9.92082e-09
4.55328e-06
-9.0672e-09
4.55291e-06
-7.95493e-09
4.55235e-06
-6.56392e-09
4.5516e-06
-4.87306e-09
4.55062e-06
-2.86017e-09
4.54941e-06
-5.01946e-10
4.54795e-06
2.22582e-09
4.54623e-06
5.34876e-09
4.54423e-06
8.89398e-09
4.54194e-06
1.28899e-08
4.53938e-06
1.7366e-08
4.53654e-06
2.23532e-08
4.53344e-06
2.78831e-08
4.53011e-06
3.39877e-08
4.5266e-06
4.06993e-08
4.52295e-06
4.80488e-08
4.51925e-06
5.60654e-08
4.51561e-06
6.47744e-08
4.51214e-06
7.41957e-08
4.50902e-06
8.43409e-08
4.50645e-06
9.52102e-08
4.50465e-06
1.06789e-07
4.50392e-06
1.19044e-07
4.50456e-06
1.31917e-07
4.50692e-06
1.45322e-07
4.51139e-06
1.59139e-07
4.51834e-06
1.73211e-07
4.52815e-06
1.87341e-07
4.54114e-06
2.01291e-07
4.55753e-06
2.14789e-07
4.57743e-06
2.27532e-07
4.60076e-06
2.3921e-07
4.62722e-06
2.49523e-07
2.58217e-07
4.6563e-06
4.90091e-06
-6.15576e-09
4.90215e-06
-1.05876e-08
4.9037e-06
-1.23384e-08
4.9053e-06
-1.12816e-08
4.9067e-06
-7.54431e-09
4.90766e-06
-1.68488e-09
4.908e-06
5.35594e-09
4.90763e-06
1.24799e-08
4.90654e-06
1.87121e-08
4.90482e-06
2.34112e-08
4.9026e-06
2.63387e-08
4.90005e-06
2.76013e-08
4.89731e-06
2.75208e-08
4.89453e-06
2.64965e-08
4.8918e-06
2.49017e-08
4.8892e-06
2.3028e-08
4.88676e-06
2.10702e-08
4.88451e-06
1.91386e-08
4.88246e-06
1.72818e-08
4.8806e-06
1.55104e-08
4.87893e-06
1.38154e-08
4.87743e-06
1.21812e-08
4.8761e-06
1.05925e-08
4.87493e-06
9.03751e-09
4.8739e-06
7.50894e-09
4.87302e-06
6.0034e-09
4.87227e-06
4.5209e-09
4.87164e-06
3.0638e-09
4.87113e-06
1.63618e-09
4.87073e-06
2.434e-10
4.87043e-06
-1.10823e-09
4.87021e-06
-2.41019e-09
4.87008e-06
-3.6576e-09
4.87001e-06
-4.84068e-09
4.87e-06
-5.94903e-09
4.87003e-06
-6.97397e-09
4.87009e-06
-7.90472e-09
4.87018e-06
-8.72998e-09
4.87026e-06
-9.43798e-09
4.87033e-06
-1.00155e-08
4.87038e-06
-1.04498e-08
4.87038e-06
-1.07261e-08
4.87032e-06
-1.08299e-08
4.87018e-06
-1.07455e-08
4.86995e-06
-1.0457e-08
4.86961e-06
-9.94745e-09
4.86913e-06
-9.19954e-09
4.86851e-06
-8.19524e-09
4.86772e-06
-6.91599e-09
4.86676e-06
-5.34252e-09
4.86559e-06
-3.455e-09
4.86423e-06
-1.23303e-09
4.86264e-06
1.34413e-09
4.86083e-06
4.2978e-09
4.8588e-06
7.64996e-09
4.85654e-06
1.14229e-08
4.85405e-06
1.56392e-08
4.85137e-06
2.03211e-08
4.8485e-06
2.54908e-08
4.84548e-06
3.11694e-08
4.84236e-06
3.73768e-08
4.8392e-06
4.41304e-08
4.83607e-06
5.14447e-08
4.83308e-06
5.93295e-08
4.83033e-06
6.77888e-08
4.82798e-06
7.68187e-08
4.82618e-06
8.64056e-08
4.82513e-06
9.65239e-08
4.82505e-06
1.07133e-07
4.82619e-06
1.18177e-07
4.82879e-06
1.29577e-07
4.83313e-06
1.41236e-07
4.8395e-06
1.53034e-07
4.84814e-06
1.64827e-07
4.85929e-06
1.76448e-07
4.87312e-06
1.87714e-07
4.88973e-06
1.98427e-07
4.90913e-06
2.08386e-07
4.93119e-06
2.17397e-07
4.95568e-06
2.25285e-07
2.31916e-07
4.98222e-06
5.24418e-06
-6.87303e-09
5.24549e-06
-1.18916e-08
5.24714e-06
-1.39848e-08
5.24889e-06
-1.30193e-08
5.25048e-06
-9.11584e-09
5.25166e-06
-2.84771e-09
5.25224e-06
4.79593e-09
5.25211e-06
1.2639e-08
5.25124e-06
1.96153e-08
5.24968e-06
2.49976e-08
5.24758e-06
2.84849e-08
5.24507e-06
3.0151e-08
5.24233e-06
3.03137e-08
5.23949e-06
2.93898e-08
5.23667e-06
2.77818e-08
5.23395e-06
2.58133e-08
5.23138e-06
2.37089e-08
5.229e-06
2.16023e-08
5.22681e-06
1.95592e-08
5.22481e-06
1.76011e-08
5.223e-06
1.57256e-08
5.22136e-06
1.39202e-08
5.2199e-06
1.21709e-08
5.21859e-06
1.04661e-08
5.21743e-06
8.79816e-09
5.2164e-06
7.16342e-09
5.21551e-06
5.5615e-09
5.21472e-06
3.99459e-09
5.21405e-06
2.46693e-09
5.21347e-06
9.84057e-10
5.21298e-06
-4.47257e-10
5.21257e-06
-1.81917e-09
5.21222e-06
-3.12426e-09
5.21193e-06
-4.35308e-09
5.21168e-06
-5.49536e-09
5.21145e-06
-6.54123e-09
5.21123e-06
-7.47937e-09
5.21102e-06
-8.29799e-09
5.21079e-06
-8.98491e-09
5.21053e-06
-9.52661e-09
5.21023e-06
-9.90957e-09
5.20986e-06
-1.01194e-08
5.20942e-06
-1.01412e-08
5.20888e-06
-9.95937e-09
5.20824e-06
-9.5582e-09
5.20747e-06
-8.92132e-09
5.20656e-06
-8.03198e-09
5.20551e-06
-6.87322e-09
5.20429e-06
-5.42765e-09
5.20289e-06
-3.6778e-09
5.20132e-06
-1.606e-09
5.19956e-06
8.0528e-10
5.19761e-06
3.57344e-09
5.19547e-06
6.71595e-09
5.19315e-06
1.02499e-08
5.19067e-06
1.41917e-08
5.18804e-06
1.85569e-08
5.18528e-06
2.33599e-08
5.18245e-06
2.86133e-08
5.17958e-06
3.43276e-08
5.17673e-06
4.05105e-08
5.17398e-06
4.71658e-08
5.17142e-06
5.42928e-08
5.16916e-06
6.18851e-08
5.1673e-06
6.99294e-08
5.166e-06
7.84045e-08
5.16541e-06
8.72792e-08
5.16571e-06
9.65117e-08
5.16708e-06
1.06048e-07
5.16972e-06
1.15821e-07
5.17383e-06
1.25749e-07
5.1796e-06
1.35738e-07
5.18724e-06
1.45678e-07
5.19689e-06
1.55449e-07
5.20869e-06
1.64921e-07
5.22272e-06
1.73958e-07
5.23899e-06
1.82422e-07
5.25746e-06
1.9018e-07
5.27801e-06
1.97114e-07
5.30044e-06
2.03123e-07
2.0814e-07
5.32447e-06
5.61149e-06
-7.62207e-09
5.61286e-06
-1.32606e-08
5.61462e-06
-1.57313e-08
5.61651e-06
-1.48948e-08
5.61827e-06
-1.08638e-08
5.61966e-06
-4.22093e-09
5.62048e-06
4.00412e-09
5.62058e-06
1.25638e-08
5.61992e-06
2.03029e-08
5.61855e-06
2.64068e-08
5.61657e-06
3.05057e-08
5.61414e-06
3.26327e-08
5.61141e-06
3.30947e-08
5.60854e-06
3.23205e-08
5.60564e-06
3.07387e-08
5.60282e-06
2.87048e-08
5.60013e-06
2.64737e-08
5.59762e-06
2.42047e-08
5.59528e-06
2.19828e-08
5.59314e-06
1.98422e-08
5.59118e-06
1.77889e-08
5.5894e-06
1.58147e-08
5.58778e-06
1.39079e-08
5.58632e-06
1.20573e-08
5.585e-06
1.02556e-08
5.58381e-06
8.49865e-09
5.58273e-06
6.7859e-09
5.58177e-06
5.11942e-09
5.5809e-06
3.50332e-09
5.58011e-06
1.94333e-09
5.5794e-06
4.4642e-10
5.57875e-06
-9.79466e-10
5.57815e-06
-2.32589e-09
5.57759e-06
-3.58332e-09
5.57705e-06
-4.74136e-09
5.57651e-06
-5.78931e-09
5.57598e-06
-6.71586e-09
5.57542e-06
-7.50862e-09
5.57483e-06
-8.15558e-09
5.57419e-06
-8.64291e-09
5.57349e-06
-8.95676e-09
5.57271e-06
-9.08386e-09
5.57183e-06
-9.00875e-09
5.57086e-06
-8.7169e-09
5.56976e-06
-8.19318e-09
5.56854e-06
-7.42228e-09
5.56718e-06
-6.38878e-09
5.56566e-06
-5.07729e-09
5.56399e-06
-3.47256e-09
5.56216e-06
-1.55951e-09
5.56017e-06
6.76304e-10
5.55803e-06
3.24891e-09
5.55573e-06
6.17178e-09
5.55328e-06
9.45751e-09
5.55072e-06
1.31175e-08
5.54805e-06
1.71617e-08
5.54531e-06
2.15985e-08
5.54254e-06
2.64338e-08
5.53979e-06
3.16713e-08
5.53712e-06
3.73112e-08
5.53458e-06
4.33502e-08
5.53228e-06
4.97805e-08
5.53029e-06
5.65893e-08
5.52872e-06
6.37578e-08
5.5277e-06
7.12606e-08
5.52734e-06
7.90648e-08
5.52779e-06
8.71296e-08
5.5292e-06
9.54055e-08
5.53172e-06
1.03834e-07
5.5355e-06
1.12348e-07
5.54067e-06
1.2087e-07
5.54739e-06
1.29317e-07
5.55577e-06
1.37598e-07
5.5659e-06
1.45617e-07
5.57783e-06
1.53277e-07
5.5916e-06
1.60479e-07
5.60718e-06
1.67132e-07
5.6245e-06
1.73149e-07
5.64344e-06
1.7846e-07
5.66383e-06
1.83007e-07
1.86758e-07
5.68549e-06
6.00452e-06
-8.40037e-09
6.00595e-06
-1.46891e-08
6.0078e-06
-1.75683e-08
6.00981e-06
-1.68938e-08
6.01173e-06
-1.27697e-08
6.01332e-06
-5.78368e-09
6.01434e-06
3.00041e-09
6.01467e-06
1.22699e-08
6.01422e-06
2.07837e-08
6.01303e-06
2.76391e-08
6.01118e-06
3.23929e-08
6.00884e-06
3.50322e-08
6.00614e-06
3.58458e-08
6.00325e-06
3.52697e-08
6.0003e-06
3.37555e-08
5.99739e-06
3.16891e-08
5.99459e-06
2.93561e-08
5.99194e-06
2.69427e-08
5.98947e-06
2.45545e-08
5.98717e-06
2.2241e-08
5.98506e-06
2.00172e-08
5.98311e-06
1.78811e-08
5.98132e-06
1.58235e-08
5.97968e-06
1.38351e-08
5.97817e-06
1.19084e-08
5.97679e-06
1.00395e-08
5.9755e-06
8.22756e-09
5.97432e-06
6.47445e-09
5.97322e-06
4.78423e-09
5.97218e-06
3.16265e-09
5.97121e-06
1.61677e-09
5.97027e-06
1.54652e-10
5.96937e-06
-1.21473e-09
5.96849e-06
-2.48184e-09
5.96761e-06
-3.63611e-09
5.96672e-06
-4.66651e-09
5.9658e-06
-5.56174e-09
5.96485e-06
-6.30974e-09
5.96385e-06
-6.89797e-09
5.96278e-06
-7.3134e-09
5.96163e-06
-7.54263e-09
5.96039e-06
-7.57232e-09
5.95905e-06
-7.38858e-09
5.95759e-06
-6.9777e-09
5.95601e-06
-6.32569e-09
5.9543e-06
-5.41918e-09
5.95245e-06
-4.24433e-09
5.95047e-06
-2.78824e-09
5.94834e-06
-1.03833e-09
5.94607e-06
1.01716e-09
5.94367e-06
3.38918e-09
5.94114e-06
6.08778e-09
5.93851e-06
9.1217e-09
5.93579e-06
1.24982e-08
5.933e-06
1.62228e-08
5.93019e-06
2.02989e-08
5.92738e-06
2.47277e-08
5.92464e-06
2.95075e-08
5.922e-06
3.46335e-08
5.91954e-06
4.00974e-08
5.91733e-06
4.5887e-08
5.91545e-06
5.19853e-08
5.914e-06
5.83709e-08
5.91307e-06
6.50167e-08
5.91277e-06
7.18901e-08
5.9132e-06
7.89525e-08
5.9145e-06
8.61593e-08
5.91677e-06
9.34597e-08
5.92013e-06
1.00797e-07
5.92469e-06
1.0811e-07
5.93055e-06
1.15331e-07
5.93779e-06
1.22392e-07
5.94649e-06
1.29219e-07