/*--------------------------------*- C++ -*----------------------------------*\
| =========                 |                                                 |
| \\      /  F ield         | OpenFOAM: The Open Source CFD Toolbox           |
|  \\    /   O peration     | Version:  4.1                                   |
|   \\  /    A nd           | Web:      www.OpenFOAM.org                      |
|    \\/     M anipulation  |                                                 |
\*---------------------------------------------------------------------------*/
FoamFile
{
    version     2.0;
    format      ascii;
    class       volScalarField;
    location    "0.6";
    object      gradTx;
}
// * * * * * * * * * * * * * * * * * * * * * * * * * * * * * * * * * * * * * //

dimensions      [0 -1 0 1 0 0 0];

internalField   nonuniform List<scalar> 
512
(
0.0105429
0.0298412
0.0445101
0.0532706
0.0564028
0.0550955
0.0508076
0.0448889
0.0383375
0.0318411
0.0258004
0.020402
0.0156901
0.0116197
0.00809221
0.00497911
0.00213733
-0.000581463
-0.00332441
-0.00623163
-0.0094276
-0.0130061
-0.0170052
-0.0213695
-0.0258993
-0.030191
-0.0335836
-0.0351551
-0.0338319
-0.028687
-0.0194331
-0.00690044
0.0320768
0.0906875
0.135014
0.161231
0.170329
0.166043
0.152846
0.134834
0.115011
0.0954215
0.0772507
0.0610422
0.0469165
0.0347287
0.024177
0.0148724
0.00638309
-0.00173752
-0.00993236
-0.0186239
-0.0281893
-0.0389165
-0.0509287
-0.0640723
-0.077764
-0.090805
-0.101214
-0.106197
-0.102459
-0.0870945
-0.0591223
-0.0210193
0.0549988
0.155127
0.230066
0.273509
0.287638
0.279251
0.256136
0.225263
0.191661
0.158683
0.128241
0.101186
0.0776778
0.0574443
0.0399623
0.0245707
0.0105423
-0.00287258
-0.0164167
-0.0308013
-0.0466673
-0.0645154
-0.0845823
-0.106655
-0.129811
-0.152099
-0.170225
-0.179444
-0.174014
-0.148672
-0.101352
-0.0361224
0.0803868
0.225905
0.333026
0.393174
0.410644
0.396195
0.361445
0.316431
0.268213
0.221369
0.178433
0.140484
0.107653
0.0794983
0.0552452
0.0339431
0.0145574
-0.00397119
-0.022692
-0.0426143
-0.0646611
-0.0895761
-0.117757
-0.148994
-0.182108
-0.214473
-0.241505
-0.256395
-0.250585
-0.21577
-0.148066
-0.0529744
0.109579
0.306344
0.447784
0.523586
0.541732
0.518289
0.469431
0.408483
0.344505
0.283158
0.227449
0.178559
0.136506
0.100614
0.0698192
0.0428569
0.0183713
-0.00501604
-0.0286683
-0.0539048
-0.0819535
-0.113844
-0.150199
-0.190904
-0.234642
-0.278235
-0.315879
-0.338579
-0.334458
-0.291129
-0.201633
-0.0725326
0.144348
0.400698
0.579032
0.668512
0.683357
0.646841
0.580585
0.501403
0.420247
0.34364
0.27485
0.214999
0.163879
0.120503
0.0834718
0.0511781
0.0219274
-0.0059874
-0.0342504
-0.0645033
-0.098306
-0.137026
-0.181595
-0.232108
-0.287274
-0.343557
-0.394066
-0.427545
-0.428199
-0.378074
-0.265112
-0.0960758
0.187171
0.51466
0.732605
0.832222
0.837999
0.782959
0.695153
0.594961
0.494985
0.402292
0.320127
0.249347
0.189389
0.138865
0.0959851
0.0587709
0.0251699
-0.00686298
-0.0393373
-0.074228
-0.113454
-0.158784
-0.211555
-0.272214
-0.339705
-0.41041
-0.476604
-0.52481
-0.534714
-0.480786
-0.342631
-0.125398
0.241662
0.656132
0.915908
1.01954
1.00806
0.927434
0.813036
0.688641
0.568061
0.45846
0.362686
0.281099
0.212629
0.155386
0.107135
0.065498
0.0280438
-0.00761809
-0.0438232
-0.0828848
-0.127106
-0.178726
-0.239603
-0.310688
-0.391424
-0.478495
-0.56375
-0.631761
-0.657285
-0.604626
-0.43996
-0.163123
0.313316
0.836416
1.13843
1.23583
1.19566
1.08055
0.933669
0.781579
0.638578
0.511342
0.401848
0.309695
0.233162
0.169739
0.116691
0.0712224
0.0304963
-0.00822623
-0.0475988
-0.0902703
-0.138943
-0.196405
-0.265169
-0.346838
-0.441666
-0.547156
-0.655334
-0.749463
-0.799516
-0.756556
-0.565393
-0.213224
0.410804
1.07212
1.41233
1.48672
1.40228
1.24185
1.05589
0.872491
0.70537
0.559982
0.436841
0.334525
0.25053
0.181586
0.12442
0.075808
0.0324769
-0.00865998
-0.0505543
-0.0961767
-0.148622
-0.211317
-0.287587
-0.379798
-0.489362
-0.615281
-0.750576
-0.878332
-0.965139
-0.945647
-0.731161
-0.281928
0.54834
1.38825
1.75296
1.7776
1.62821
1.40982
1.17778
0.959613
0.766974
0.603275
0.466813
0.354928
0.264259
0.190585
0.130082
0.0791243
0.0339399
-0.00889212
-0.0525835
-0.100401
-0.155782
-0.222899
-0.306108
-0.40853
-0.533104
-0.681214
-0.847866
-1.01761
-1.1575
-1.18363
-0.955714
-0.379323
0.750096
1.82335
2.17888
2.11234
1.87174
1.58152
1.29655
1.04067
0.821618
0.639997
0.490845
0.370194
0.273873
0.196396
0.133435
0.0810513
0.0348475
-0.0088969
-0.053588
-0.102762
-0.160055
-0.230529
-0.319921
-0.431846
-0.57111
-0.742682
-0.944564
-1.16455
-1.3785
-1.48528
-1.26749
-0.522316
1.0587
2.43808
2.71065
2.49105
2.12808
1.7523
1.40844
1.11287
0.867212
0.668867
0.507974
0.379559
0.278922
0.19869
0.134227
0.0814909
0.0351749
-0.00865205
-0.0534796
-0.103121
-0.161085
-0.233505
-0.328205
-0.448459
-0.601199
-0.796761
-1.03694
-1.31322
-1.62653
-1.86827
-1.71124
-0.740212
1.55205
3.32981
3.36579
2.90613
2.38811
1.91554
1.50869
1.17297
0.90132
0.688667
0.517228
0.382177
0.279025
0.197161
0.132174
0.0803862
0.0349165
-0.0081437
-0.0521764
-0.101431
-0.158555
-0.230993
-0.330212
-0.457095
-0.620758
-0.839892
-1.12053
-1.45289
-1.89274
-2.35118
-2.35865
-1.08552
2.37731
4.65739
4.14521
3.33636
2.63732
2.06286
1.59163
1.21749
0.921048
0.698477
0.517644
0.377028
0.273969
0.191537
0.126912
0.0777633
0.0340921
-0.00737966
-0.0495779
-0.0978058
-0.152254
-0.221872
-0.325421
-0.456687
-0.626637
-0.867876
-1.19144
-1.56598
-2.15462
-2.9471
-3.32643
-1.65544
3.82153
6.68362
4.99934
3.73974
2.856
2.18496
1.65082
1.24306
0.922709
0.69819
0.508282
0.362706
0.263925
0.181588
0.117871
0.0738339
0.0327548
-0.00642195
-0.0454831
-0.0926606
-0.142221
-0.204356
-0.313825
-0.44677
-0.614894
-0.875528
-1.24989
-1.62587
-2.36589
-3.64667
-4.80711
-2.6355
)
;

boundaryField
{
    left
    {
        type            calculated;
        value           uniform 0;
    }
    right
    {
        type            calculated;
        value           uniform 0;
    }
    interface
    {
        type            calculated;
        value           nonuniform List<scalar> 
32
(
3.82153
6.68362
4.99934
3.73974
2.856
2.18496
1.65082
1.24306
0.922709
0.69819
0.508282
0.362706
0.263925
0.181588
0.117871
0.0738339
0.0327548
-0.00642195
-0.0454831
-0.0926606
-0.142221
-0.204356
-0.313825
-0.44677
-0.614894
-0.875528
-1.24989
-1.62587
-2.36589
-3.64667
-4.80711
-2.6355
)
;
    }
    bottom
    {
        type            calculated;
        value           nonuniform List<scalar> 
32
(
0.0105429
0.0298412
0.0445101
0.0532706
0.0564028
0.0550955
0.0508076
0.0448889
0.0383375
0.0318411
0.0258004
0.020402
0.0156901
0.0116197
0.00809221
0.00497911
0.00213733
-0.000581463
-0.00332441
-0.00623163
-0.0094276
-0.0130061
-0.0170052
-0.0213695
-0.0258993
-0.030191
-0.0335836
-0.0351551
-0.0338319
-0.028687
-0.0194331
-0.00690044
)
;
    }
    defaultFaces
    {
        type            empty;
    }
}


// ************************************************************************* //
