/*--------------------------------*- C++ -*----------------------------------*\
| =========                 |                                                 |
| \\      /  F ield         | OpenFOAM: The Open Source CFD Toolbox           |
|  \\    /   O peration     | Version:  4.1                                   |
|   \\  /    A nd           | Web:      www.OpenFOAM.org                      |
|    \\/     M anipulation  |                                                 |
\*---------------------------------------------------------------------------*/
FoamFile
{
    version     2.0;
    format      ascii;
    class       surfaceScalarField;
    location    "0.8";
    object      phi;
}
// * * * * * * * * * * * * * * * * * * * * * * * * * * * * * * * * * * * * * //

dimensions      [1 0 -1 0 0 0 0];

internalField   nonuniform List<scalar> 
23692
(
9.30736e-05
5.94411e-09
9.30562e-05
1.74581e-08
9.30195e-05
3.66989e-08
9.29564e-05
6.30769e-08
9.28633e-05
9.31036e-08
9.27417e-05
1.21601e-07
9.25977e-05
1.44012e-07
9.24396e-05
1.58074e-07
9.22755e-05
1.64106e-07
9.21113e-05
1.64177e-07
9.19504e-05
1.60923e-07
9.17938e-05
1.56611e-07
9.16411e-05
1.52717e-07
9.14912e-05
1.49924e-07
9.13428e-05
1.48338e-07
9.11951e-05
1.47767e-07
9.10472e-05
1.47916e-07
9.08987e-05
1.48507e-07
9.07493e-05
1.49341e-07
9.0599e-05
1.50291e-07
9.04477e-05
1.51293e-07
9.02954e-05
1.52329e-07
9.0142e-05
1.53398e-07
8.99875e-05
1.54519e-07
8.98318e-05
1.55711e-07
8.96748e-05
1.56994e-07
8.95164e-05
1.58387e-07
8.93565e-05
1.59904e-07
8.9195e-05
1.6156e-07
8.90316e-05
1.63361e-07
8.88663e-05
1.65318e-07
8.86989e-05
1.67437e-07
8.85291e-05
1.69721e-07
8.8357e-05
1.72174e-07
8.81822e-05
1.748e-07
8.80046e-05
1.77603e-07
8.7824e-05
1.80585e-07
8.76402e-05
1.83754e-07
8.74531e-05
1.87117e-07
8.72625e-05
1.90681e-07
8.7068e-05
1.9446e-07
8.68695e-05
1.9847e-07
8.66668e-05
2.02728e-07
8.64595e-05
2.07255e-07
8.62475e-05
2.12082e-07
8.60302e-05
2.17238e-07
8.58075e-05
2.22763e-07
8.55788e-05
2.287e-07
8.53437e-05
2.35103e-07
8.51016e-05
2.42031e-07
8.48521e-05
2.49555e-07
8.45943e-05
2.5776e-07
8.43276e-05
2.6674e-07
8.4051e-05
2.7661e-07
8.37635e-05
2.87505e-07
8.34639e-05
2.99583e-07
8.31509e-05
3.13035e-07
8.28228e-05
3.28088e-07
8.24778e-05
3.45014e-07
8.21136e-05
3.64148e-07
8.17277e-05
3.85898e-07
8.1317e-05
4.10768e-07
8.08776e-05
4.39387e-07
8.0405e-05
4.72552e-07
7.98937e-05
5.11277e-07
7.93369e-05
5.56872e-07
7.87258e-05
6.11056e-07
7.80497e-05
6.76112e-07
7.72946e-05
7.55122e-07
7.64423e-05
8.52318e-07
7.54687e-05
9.73607e-07
7.43413e-05
1.12738e-06
7.30155e-05
1.3258e-06
7.14288e-05
1.58672e-06
6.94918e-05
1.93694e-06
6.70748e-05
2.41707e-06
6.39857e-05
3.08909e-06
5.9937e-05
4.04865e-06
5.44828e-05
5.45419e-06
4.68846e-05
7.59827e-06
1.12574e-05
3.56271e-05
9.95932e-05
1.20629e-08
9.95748e-05
3.58381e-08
9.9536e-05
7.55053e-08
9.94692e-05
1.29955e-07
9.93703e-05
1.92014e-07
9.92409e-05
2.50989e-07
9.90874e-05
2.97442e-07
9.89189e-05
3.26666e-07
9.87437e-05
3.39284e-07
9.85683e-05
3.39556e-07
9.83963e-05
3.32914e-07
9.82289e-05
3.24051e-07
9.80656e-05
3.16021e-07
9.79053e-05
3.10238e-07
9.77467e-05
3.06946e-07
9.75887e-05
3.05743e-07
9.74306e-05
3.06022e-07
9.72719e-05
3.07223e-07
9.71123e-05
3.08927e-07
9.69517e-05
3.10876e-07
9.67901e-05
3.12939e-07
9.66273e-05
3.15071e-07
9.64635e-05
3.1728e-07
9.62984e-05
3.19596e-07
9.6132e-05
3.22061e-07
9.59643e-05
3.24715e-07
9.57951e-05
3.27597e-07
9.56243e-05
3.30736e-07
9.54517e-05
3.3416e-07
9.52772e-05
3.37889e-07
9.51005e-05
3.41939e-07
9.49217e-05
3.4632e-07
9.47403e-05
3.51042e-07
9.45564e-05
3.56114e-07
9.43697e-05
3.61543e-07
9.41799e-05
3.67335e-07
9.3987e-05
3.73498e-07
9.37907e-05
3.80046e-07
9.35909e-05
3.86991e-07
9.33872e-05
3.94353e-07
9.31795e-05
4.02157e-07
9.29675e-05
4.10433e-07
9.27511e-05
4.19221e-07
9.25298e-05
4.28565e-07
9.23033e-05
4.38523e-07
9.20714e-05
4.49159e-07
9.18336e-05
4.60552e-07
9.15895e-05
4.72793e-07
9.13386e-05
4.85988e-07
9.10804e-05
5.0026e-07
9.08142e-05
5.15758e-07
9.05393e-05
5.32647e-07
9.02549e-05
5.51126e-07
8.99601e-05
5.71427e-07
8.96538e-05
5.93825e-07
8.93347e-05
6.1864e-07
8.90015e-05
6.46257e-07
8.86525e-05
6.77135e-07
8.82857e-05
7.1183e-07
8.78988e-05
7.51009e-07
8.74892e-05
7.95493e-07
8.70537e-05
8.46291e-07
8.65884e-05
9.04657e-07
8.60888e-05
9.72168e-07
8.55493e-05
1.05083e-06
8.49629e-05
1.1432e-06
8.43214e-05
1.25262e-06
8.3614e-05
1.3835e-06
8.28274e-05
1.5417e-06
8.19445e-05
1.73517e-06
8.09433e-05
1.97482e-06
7.97949e-05
2.27581e-06
7.84612e-05
2.6595e-06
7.68917e-05
3.15619e-06
7.50196e-05
3.80905e-06
7.27576e-05
4.67907e-06
6.99969e-05
5.84981e-06
6.66171e-05
7.42851e-06
6.25316e-05
9.53965e-06
5.78712e-05
1.22587e-05
1.51762e-05
5.39524e-05
0.00010657
1.83446e-08
0.00010655
5.50259e-08
0.00010651
1.16145e-07
0.000106439
2.00199e-07
0.000106335
2.96184e-07
0.000106199
3.8761e-07
0.000106036
4.59855e-07
0.000105857
5.05556e-07
0.000105671
5.25573e-07
0.000105484
5.26412e-07
0.000105301
5.16438e-07
0.000105122
5.02895e-07
0.000104947
4.90529e-07
0.000104776
4.81571e-07
0.000104607
4.76415e-07
0.000104438
4.74475e-07
0.000104269
4.7483e-07
0.0001041
4.76619e-07
0.000103929
4.79203e-07
0.000103758
4.82178e-07
0.000103586
4.85343e-07
0.000103412
4.88629e-07
0.000103237
4.92041e-07
0.000103061
4.95628e-07
0.000102884
4.9945e-07
0.000102705
5.03571e-07
0.000102525
5.08045e-07
0.000102342
5.12921e-07
0.000102158
5.18237e-07
0.000101972
5.24025e-07
0.000101784
5.30308e-07
0.000101593
5.37105e-07
0.0001014
5.44428e-07
0.000101204
5.5229e-07
0.000101004
5.60702e-07
0.000100802
5.69674e-07
0.000100596
5.79219e-07
0.000100387
5.89354e-07
0.000100174
6.00102e-07
9.99568e-05
6.11493e-07
9.97354e-05
6.23563e-07
9.95095e-05
6.3636e-07
9.92788e-05
6.49942e-07
9.9043e-05
6.64381e-07
9.88017e-05
6.79762e-07
9.85547e-05
6.96185e-07
9.83015e-05
7.13769e-07
9.80416e-05
7.32654e-07
9.77746e-05
7.53001e-07
9.74999e-05
7.75e-07
9.72168e-05
7.98871e-07
9.69246e-05
8.2487e-07
9.66224e-05
8.53298e-07
9.63093e-05
8.84505e-07
9.59842e-05
9.18902e-07
9.56459e-05
9.56978e-07
9.52929e-05
9.99308e-07
9.49234e-05
1.04658e-06
9.45356e-05
1.09962e-06
9.41272e-05
1.15942e-06
9.36955e-05
1.2272e-06
9.32374e-05
1.30443e-06
9.27491e-05
1.39296e-06
9.22262e-05
1.49506e-06
9.16634e-05
1.61361e-06
9.10543e-05
1.75228e-06
9.03912e-05
1.91575e-06
8.96646e-05
2.11011e-06
8.88629e-05
2.34335e-06
8.79721e-05
2.62605e-06
8.69745e-05
2.97236e-06
8.5849e-05
3.40129e-06
8.457e-05
3.93851e-06
8.31077e-05
4.61848e-06
8.143e-05
5.48676e-06
7.95079e-05
6.60122e-06
7.73287e-05
8.029e-06
7.49248e-05
9.8324e-06
7.24351e-05
1.20294e-05
7.02158e-05
1.4478e-05
1.65689e-05
6.88231e-05
0.000114035
2.47707e-08
0.000114015
7.48497e-08
0.000113973
1.58228e-07
0.0001139
2.73166e-07
0.000113791
4.04776e-07
0.000113648
5.30578e-07
0.000113477
6.30486e-07
0.000113289
6.94234e-07
0.000113092
7.22787e-07
0.000112893
7.24878e-07
0.000112698
7.11868e-07
0.000112507
6.93675e-07
0.000112321
6.76856e-07
0.000112138
6.64536e-07
0.000111957
6.57334e-07
0.000111777
6.54503e-07
0.000111597
6.54818e-07
0.000111416
6.57125e-07
0.000111235
6.60551e-07
0.000111053
6.64552e-07
0.000110869
6.68845e-07
0.000110684
6.73326e-07
0.000110498
6.78005e-07
0.000110311
6.82938e-07
0.000110122
6.88207e-07
0.000109932
6.93892e-07
0.00010974
7.00071e-07
0.000109546
7.06805e-07
0.00010935
7.14146e-07
0.000109152
7.22134e-07
0.000108952
7.30801e-07
0.000108749
7.40171e-07
0.000108543
7.50263e-07
0.000108334
7.61092e-07
0.000108122
7.72669e-07
0.000107907
7.85012e-07
0.000107688
7.98138e-07
0.000107465
8.12068e-07
0.000107238
8.26833e-07
0.000107007
8.42474e-07
0.000106772
8.59042e-07
0.000106532
8.766e-07
0.000106286
8.95227e-07
0.000106036
9.15018e-07
0.000105779
9.36089e-07
0.000105517
9.58576e-07
0.000105248
9.82639e-07
0.000104972
1.00847e-06
0.000104689
1.03627e-06
0.000104398
1.06631e-06
0.000104098
1.09889e-06
0.000103788
1.13433e-06
0.000103468
1.17305e-06
0.000103137
1.2155e-06
0.000102794
1.26224e-06
0.000102437
1.31391e-06
0.000102065
1.37126e-06
0.000101677
1.43519e-06
0.000101269
1.50678e-06
0.000100842
1.58732e-06
0.00010039
1.67836e-06
9.99131e-05
1.7818e-06
9.94061e-05
1.89995e-06
9.88655e-05
2.03567e-06
9.82866e-05
2.19252e-06
9.76639e-05
2.37494e-06
9.69911e-05
2.58855e-06
9.62607e-05
2.84049e-06
9.54642e-05
3.1399e-06
9.45917e-05
3.49851e-06
9.36326e-05
3.93148e-06
9.25756e-05
4.45829e-06
9.14103e-05
5.1038e-06
9.01297e-05
5.89906e-06
8.87353e-05
6.88121e-06
8.72456e-05
8.09092e-06
8.57106e-05
9.56393e-06
8.42321e-05
1.1311e-05
8.29849e-05
1.32765e-05
8.22026e-05
1.52604e-05
1.6799e-05
8.19724e-05
0.000122022
3.13155e-08
0.000122002
9.50931e-08
0.000121959
2.01244e-07
0.000121884
3.48008e-07
0.000121772
5.16663e-07
0.000121624
6.7865e-07
0.000121447
8.08199e-07
0.000121249
8.91867e-07
0.000121041
9.30488e-07
0.000120831
9.34902e-07
0.000120624
9.1947e-07
0.000120421
8.96866e-07
0.000120222
8.75574e-07
0.000120027
8.59725e-07
0.000119834
8.50258e-07
0.000119642
8.46318e-07
0.00011945
8.46415e-07
0.000119258
8.49106e-07
0.000119066
8.53294e-07
0.000118872
8.58281e-07
0.000118677
8.63697e-07
0.000118481
8.69406e-07
0.000118284
8.75402e-07
0.000118085
8.81756e-07
0.000117884
8.88564e-07
0.000117682
8.95922e-07
0.000117479
9.03925e-07
0.000117273
9.12647e-07
0.000117065
9.22151e-07
0.000116854
9.32489e-07
0.000116641
9.43697e-07
0.000116426
9.55805e-07
0.000116207
9.68836e-07
0.000115986
9.82806e-07
0.00011576
9.97734e-07
0.000115532
1.01364e-06
0.000115299
1.03053e-06
0.000115063
1.04846e-06
0.000114822
1.06744e-06
0.000114577
1.08754e-06
0.000114328
1.10882e-06
0.000114073
1.13135e-06
0.000113813
1.15524e-06
0.000113547
1.18061e-06
0.000113276
1.2076e-06
0.000112998
1.23638e-06
0.000112713
1.26715e-06
0.000112422
1.30015e-06
0.000112122
1.33565e-06
0.000111815
1.37396e-06
0.000111498
1.41546e-06
0.000111172
1.46055e-06
0.000110835
1.50974e-06
0.000110487
1.5636e-06
0.000110127
1.6228e-06
0.000109752
1.68811e-06
0.000109363
1.76046e-06
0.000108958
1.84092e-06
0.000108534
1.93078e-06
0.000108089
2.03157e-06
0.000107623
2.14511e-06
0.000107131
2.2736e-06
0.000106611
2.41969e-06
0.00010606
2.58662e-06
0.000105474
2.77835e-06
0.000104849
2.99971e-06
0.000104181
3.25671e-06
0.000103465
3.55676e-06
0.000102696
3.90903e-06
0.000101869
4.32492e-06
0.000100983
4.81842e-06
0.000100034
5.40656e-06
9.90285e-05
6.1096e-06
9.7977e-05
6.95051e-06
9.6905e-05
7.95327e-06
9.58575e-05
9.13836e-06
9.49081e-05
1.05134e-05
9.41631e-05
1.20559e-05
9.37538e-05
1.36859e-05
9.37858e-05
1.52283e-05
1.63852e-05
9.41996e-05
0.00013057
3.79334e-08
0.00013055
1.15502e-07
0.000130506
2.44598e-07
0.00013043
4.2369e-07
0.000130317
6.30442e-07
0.000130165
8.30255e-07
0.000129982
9.91518e-07
0.000129776
1.09729e-06
0.000129559
1.14795e-06
0.000129338
1.15621e-06
0.000129118
1.13934e-06
0.000128902
1.11282e-06
0.00012869
1.08717e-06
0.000128482
1.06766e-06
0.000128277
1.05568e-06
0.000128073
1.05035e-06
0.000127869
1.04998e-06
0.000127666
1.05285e-06
0.000127461
1.05766e-06
0.000127256
1.06355e-06
0.00012705
1.07006e-06
0.000126842
1.077e-06
0.000126633
1.08436e-06
0.000126423
1.09221e-06
0.00012621
1.10065e-06
0.000125997
1.10979e-06
0.000125781
1.11974e-06
0.000125563
1.13059e-06
0.000125343
1.14241e-06
0.00012512
1.15525e-06
0.000124894
1.16916e-06
0.000124666
1.18418e-06
0.000124435
1.20032e-06
0.0001242
1.2176e-06
0.000123961
1.23605e-06
0.000123719
1.25569e-06
0.000123473
1.27654e-06
0.000123223
1.29864e-06
0.000122969
1.32203e-06
0.000122709
1.34676e-06
0.000122445
1.37293e-06
0.000122176
1.40062e-06
0.000121901
1.42995e-06
0.000121621
1.46106e-06
0.000121334
1.49414e-06
0.000121041
1.52938e-06
0.000120741
1.56701e-06
0.000120434
1.60733e-06
0.000120119
1.65064e-06
0.000119796
1.69732e-06
0.000119464
1.74781e-06
0.000119122
1.80259e-06
0.000118769
1.86223e-06
0.000118405
1.92741e-06
0.000118029
1.99889e-06
0.00011764
2.07757e-06
0.000117236
2.16448e-06
0.000116816
2.26084e-06
0.000116379
2.36809e-06
0.000115922
2.48792e-06
0.000115445
2.62231e-06
0.000114945
2.77363e-06
0.00011442
2.9447e-06
0.000113868
3.13887e-06
0.000113286
3.36017e-06
0.000112672
3.61342e-06
0.000112024
3.9044e-06
0.000111341
4.24002e-06
0.000110622
4.62852e-06
0.000109867
5.07963e-06
0.000109081
5.60462e-06
0.000108271
6.21628e-06
0.000107452
6.92839e-06
0.000106648
7.75458e-06
0.000105896
8.70595e-06
0.000105247
9.78667e-06
0.000104774
1.09866e-05
0.00010456
1.22702e-05
0.000104683
1.35623e-05
0.000105176
1.47355e-05
1.56126e-05
0.000105949
0.000139716
4.45759e-08
0.000139696
1.35805e-07
0.000139653
2.87622e-07
0.000139577
4.99065e-07
0.000139463
7.44523e-07
0.00013931
9.83569e-07
0.000139123
1.17865e-06
0.000138911
1.30901e-06
0.000138685
1.37414e-06
0.000138453
1.38826e-06
0.000138221
1.37138e-06
0.000137992
1.34173e-06
0.000137767
1.31199e-06
0.000137546
1.28876e-06
0.000137328
1.274e-06
0.000137111
1.26695e-06
0.000136895
1.26577e-06
0.00013668
1.26855e-06
0.000136464
1.27378e-06
0.000136247
1.28044e-06
0.000136029
1.28797e-06
0.00013581
1.29614e-06
0.000135589
1.30489e-06
0.000135367
1.3143e-06
0.000135143
1.32447e-06
0.000134918
1.33551e-06
0.00013469
1.34755e-06
0.00013446
1.36067e-06
0.000134227
1.37495e-06
0.000133992
1.39046e-06
0.000133754
1.40723e-06
0.000133513
1.42532e-06
0.000133268
1.44473e-06
0.00013302
1.4655e-06
0.000132769
1.48764e-06
0.000132513
1.51118e-06
0.000132254
1.53614e-06
0.00013199
1.56256e-06
0.000131721
1.5905e-06
0.000131448
1.62001e-06
0.00013117
1.6512e-06
0.000130886
1.68417e-06
0.000130597
1.71906e-06
0.000130302
1.75603e-06
0.000130001
1.79528e-06
0.000129693
1.83704e-06
0.000129379
1.88159e-06
0.000129057
1.92923e-06
0.000128727
1.98034e-06
0.000128389
2.03533e-06
0.000128042
2.09468e-06
0.000127686
2.15895e-06
0.00012732
2.22878e-06
0.000126942
2.30488e-06
0.000126553
2.38811e-06
0.000126151
2.47944e-06
0.000125735
2.57998e-06
0.000125305
2.69103e-06
0.000124859
2.8141e-06
0.000124396
2.95093e-06
0.000123915
3.10357e-06
0.000123414
3.27437e-06
0.000122893
3.46611e-06
0.00012235
3.68202e-06
0.000121784
3.92586e-06
0.000121195
4.20199e-06
0.000120584
4.51548e-06
0.000119952
4.8721e-06
0.000119302
5.27842e-06
0.00011864
5.74169e-06
0.000117975
6.26972e-06
0.000117321
6.87045e-06
0.000116698
7.55121e-06
0.000116135
8.3174e-06
0.000115671
9.17036e-06
0.000115354
1.01041e-05
0.00011524
1.11007e-05
0.000115385
1.21244e-05
0.000115831
1.31164e-05
0.000116574
1.39926e-05
1.46522e-05
0.000117535
0.000149503
5.11886e-08
0.000149483
1.55735e-07
0.000149441
3.29671e-07
0.000149367
5.72963e-07
0.000149255
8.5725e-07
0.000149101
1.13663e-06
0.000148912
1.36763e-06
0.000148696
1.52532e-06
0.000148463
1.60776e-06
0.000148221
1.63024e-06
0.000147977
1.61519e-06
0.000147735
1.58354e-06
0.000147497
1.5502e-06
0.000147262
1.52326e-06
0.000147031
1.50546e-06
0.000146801
1.49631e-06
0.000146573
1.49394e-06
0.000146346
1.49629e-06
0.000146118
1.50167e-06
0.000145889
1.50892e-06
0.00014566
1.51738e-06
0.000145429
1.52674e-06
0.000145197
1.53691e-06
0.000144964
1.54793e-06
0.000144728
1.55992e-06
0.000144491
1.57298e-06
0.000144251
1.58723e-06
0.000144009
1.60277e-06
0.000143764
1.61967e-06
0.000143517
1.638e-06
0.000143266
1.65781e-06
0.000143012
1.67912e-06
0.000142755
1.70197e-06
0.000142494
1.72636e-06
0.000142229
1.75234e-06
0.000141961
1.77991e-06
0.000141688
1.8091e-06
0.00014141
1.83996e-06
0.000141128
1.87255e-06
0.000140841
1.90694e-06
0.000140549
1.94322e-06
0.000140252
1.98153e-06
0.000139949
2.02201e-06
0.00013964
2.06484e-06
0.000139325
2.11025e-06
0.000139004
2.15849e-06
0.000138676
2.20985e-06
0.00013834
2.26468e-06
0.000137997
2.32339e-06
0.000137646
2.38641e-06
0.000137287
2.45427e-06
0.000136918
2.52757e-06
0.00013654
2.60697e-06
0.000136151
2.69325e-06
0.000135752
2.78727e-06
0.000135342
2.89005e-06
0.000134919
3.00273e-06
0.000134483
3.1266e-06
0.000134034
3.26316e-06
0.000133571
3.41411e-06
0.000133093
3.5814e-06
0.0001326
3.76723e-06
0.000132092
3.97412e-06
0.000131569
4.20494e-06
0.000131032
4.46289e-06
0.000130483
4.75155e-06
0.000129923
5.07488e-06
0.000129358
5.43716e-06
0.000128794
5.84289e-06
0.000128239
6.29663e-06
0.000127706
6.80268e-06
0.000127212
7.36459e-06
0.000126779
7.98443e-06
0.000126434
8.66168e-06
0.000126213
9.39174e-06
0.000126153
1.01639e-05
0.000126295
1.09592e-05
0.000126671
1.17478e-05
0.0001273
1.2488e-05
0.000128164
1.31276e-05
1.36106e-05
0.000129206
0.000159976
5.77328e-08
0.000159956
1.75065e-07
0.000159916
3.70161e-07
0.000159844
6.44322e-07
0.000159735
9.67072e-07
0.000159584
1.28754e-06
0.000159395
1.55644e-06
0.000159176
1.74433e-06
0.000158936
1.84729e-06
0.000158686
1.88106e-06
0.000158431
1.87009e-06
0.000158176
1.83789e-06
0.000157925
1.80167e-06
0.000157677
1.77117e-06
0.000157432
1.75012e-06
0.00015719
1.73848e-06
0.00015695
1.7345e-06
0.00015671
1.73603e-06
0.00015647
1.74125e-06
0.00015623
1.74888e-06
0.00015599
1.75812e-06
0.000155748
1.76861e-06
0.000155504
1.78019e-06
0.000155259
1.79289e-06
0.000155013
1.80678e-06
0.000154764
1.82198e-06
0.000154512
1.83858e-06
0.000154258
1.85667e-06
0.000154002
1.87634e-06
0.000153742
1.89765e-06
0.000153479
1.92063e-06
0.000153213
1.94531e-06
0.000152943
1.97172e-06
0.00015267
1.99988e-06
0.000152392
2.02979e-06
0.000152111
2.06149e-06
0.000151825
2.095e-06
0.000151535
2.13036e-06
0.000151239
2.16764e-06
0.000150939
2.20692e-06
0.000150634
2.24829e-06
0.000150324
2.2919e-06
0.000150008
2.3379e-06
0.000149687
2.38649e-06
0.000149359
2.43791e-06
0.000149025
2.49241e-06
0.000148684
2.55033e-06
0.000148337
2.61203e-06
0.000147983
2.67791e-06
0.000147621
2.74844e-06
0.000147251
2.82417e-06
0.000146873
2.90571e-06
0.000146486
2.99372e-06
0.00014609
3.08899e-06
0.000145685
3.19239e-06
0.00014527
3.30489e-06
0.000144845
3.4276e-06
0.00014441
3.56174e-06
0.000143965
3.70872e-06
0.000143509
3.87006e-06
0.000143042
4.0475e-06
0.000142567
4.24294e-06
0.000142082
4.45849e-06
0.000141591
4.69643e-06
0.000141095
4.95922e-06
0.000140597
5.24946e-06
0.000140102
5.56983e-06
0.000139616
5.92297e-06
0.000139147
6.31136e-06
0.000138707
6.73705e-06
0.000138308
7.20139e-06
0.000137968
7.70457e-06
0.000137708
8.24505e-06
0.000137551
8.81885e-06
0.000137524
9.41866e-06
0.000137655
1.00329e-05
0.000137969
1.0645e-05
0.000138484
1.12324e-05
0.000139205
1.17674e-05
0.000140114
1.22188e-05
1.25559e-05
0.000141168
0.000171182
6.41894e-08
0.000171163
1.93653e-07
0.000171125
4.08687e-07
0.000171057
7.12331e-07
0.000170951
1.07271e-06
0.000170804
1.43464e-06
0.000170617
1.74321e-06
0.000170397
1.96419e-06
0.000170153
2.09107e-06
0.000169895
2.13937e-06
0.00016963
2.1351e-06
0.000169364
2.10412e-06
0.0001691
2.06596e-06
0.000168839
2.03221e-06
0.000168581
2.00779e-06
0.000168326
1.99331e-06
0.000168073
1.98728e-06
0.000167822
1.98759e-06
0.000167571
1.99231e-06
0.00016732
2.00006e-06
0.000167068
2.00994e-06
0.000166815
2.02147e-06
0.000166561
2.03446e-06
0.000166305
2.04887e-06
0.000166047
2.06474e-06
0.000165787
2.08217e-06
0.000165524
2.10124e-06
0.000165259
2.12203e-06
0.00016499
2.14461e-06
0.000164719
2.16902e-06
0.000164444
2.1953e-06
0.000164166
2.22347e-06
0.000163884
2.25355e-06
0.000163599
2.28554e-06
0.000163309
2.31946e-06
0.000163015
2.35533e-06
0.000162717
2.39317e-06
0.000162414
2.43303e-06
0.000162107
2.47496e-06
0.000161795
2.51905e-06
0.000161478
2.56541e-06
0.000161155
2.61416e-06
0.000160828
2.66549e-06
0.000160495
2.71959e-06
0.000160156
2.7767e-06
0.000159811
2.8371e-06
0.000159461
2.90111e-06
0.000159103
2.9691e-06
0.00015874
3.04148e-06
0.00015837
3.11872e-06
0.000157992
3.20136e-06
0.000157608
3.28998e-06
0.000157217
3.38524e-06
0.000156818
3.48789e-06
0.000156411
3.59873e-06
0.000155998
3.71867e-06
0.000155577
3.8487e-06
0.000155148
3.98992e-06
0.000154714
4.14353e-06
0.000154273
4.31082e-06
0.000153827
4.49319e-06
0.000153378
4.69213e-06
0.000152927
4.9092e-06
0.000152478
5.14602e-06
0.000152033
5.40421e-06
0.000151597
5.68532e-06
0.000151176
5.99076e-06
0.000150777
6.32169e-06
0.00015041
6.67881e-06
0.000150085
7.06222e-06
0.000149815
7.47111e-06
0.000149616
7.90352e-06
0.000149505
8.35589e-06
0.000149501
8.8228e-06
0.000149623
9.29646e-06
0.00014989
9.76651e-06
0.000150315
1.02198e-05
0.000150907
1.06405e-05
0.000151663
1.10111e-05
0.000152569
1.13132e-05
1.15305e-05
0.000153594
0.000183173
7.05665e-08
0.000183155
2.11458e-07
0.000183118
4.4506e-07
0.000183054
7.76531e-07
0.000182954
1.17335e-06
0.000182812
1.57671e-06
0.000182628
1.92641e-06
0.000182409
2.18321e-06
0.000182163
2.3374e-06
0.000181899
2.40361e-06
0.000181625
2.40888e-06
0.000181348
2.38116e-06
0.000181072
2.34227e-06
0.000180798
2.30577e-06
0.000180528
2.278e-06
0.000180261
2.26042e-06
0.000179996
2.25196e-06
0.000179733
2.25064e-06
0.000179471
2.25454e-06
0.000179209
2.26215e-06
0.000178946
2.27249e-06
0.000178683
2.28497e-06
0.000178418
2.29934e-06
0.000178151
2.31548e-06
0.000177883
2.3334e-06
0.000177612
2.35315e-06
0.000177338
2.3748e-06
0.000177062
2.3984e-06
0.000176782
2.42399e-06
0.0001765
2.45161e-06
0.000176214
2.48128e-06
0.000175924
2.51302e-06
0.000175631
2.54681e-06
0.000175334
2.58267e-06
0.000175033
2.6206e-06
0.000174728
2.66061e-06
0.000174418
2.70272e-06
0.000174104
2.74697e-06
0.000173786
2.79342e-06
0.000173463
2.84214e-06
0.000173135
2.89324e-06
0.000172802
2.94686e-06
0.000172464
3.00317e-06
0.000172122
3.06235e-06
0.000171774
3.12466e-06
0.00017142
3.19036e-06
0.000171062
3.25976e-06
0.000170698
3.33322e-06
0.000170328
3.41114e-06
0.000169953
3.49396e-06
0.000169572
3.58219e-06
0.000169185
3.67637e-06
0.000168794
3.77709e-06
0.000168397
3.88503e-06
0.000167994
4.0009e-06
0.000167588
4.12547e-06
0.000167177
4.25958e-06
0.000166762
4.40412e-06
0.000166346
4.56002e-06
0.000165929
4.72827e-06
0.000165512
4.90987e-06
0.000165098
5.10584e-06
0.00016469
5.31714e-06
0.000164292
5.54471e-06
0.000163906
5.78932e-06
0.00016354
6.05159e-06
0.000163199
6.33182e-06
0.000162891
6.62996e-06
0.000162624
6.94541e-06
0.00016241
7.27692e-06
0.000162258
7.6224e-06
0.000162183
7.97878e-06
0.000162197
8.34179e-06
0.000162314
8.70587e-06
0.000162546
9.06404e-06
0.000162905
9.40792e-06
0.000163397
9.72789e-06
0.000164024
1.00134e-05
0.000164782
1.02535e-05
0.000165657
1.04379e-05
1.0558e-05
0.000166629
0.000196003
7.69047e-08
0.000195986
2.28552e-07
0.000195952
4.79344e-07
0.000195892
8.36876e-07
0.000195796
1.2687e-06
0.00019566
1.7131e-06
0.000195481
2.105e-06
0.000195265
2.40001e-06
0.000195017
2.58469e-06
0.000194749
2.67216e-06
0.000194468
2.68991e-06
0.000194181
2.66765e-06
0.000193894
2.62944e-06
0.000193609
2.59091e-06
0.000193327
2.55998e-06
0.000193048
2.53919e-06
0.000192772
2.52801e-06
0.000192498
2.52475e-06
0.000192225
2.5275e-06
0.000191953
2.53473e-06
0.00019168
2.54536e-06
0.000191406
2.5587e-06
0.000191131
2.5744e-06
0.000190854
2.59228e-06
0.000190575
2.61228e-06
0.000190294
2.63442e-06
0.00019001
2.65872e-06
0.000189723
2.68519e-06
0.000189433
2.71387e-06
0.00018914
2.74476e-06
0.000188844
2.77787e-06
0.000188544
2.81318e-06
0.00018824
2.85068e-06
0.000187932
2.89037e-06
0.00018762
2.93223e-06
0.000187305
2.97626e-06
0.000186985
3.02248e-06
0.000186661
3.07092e-06
0.000186333
3.12162e-06
0.000186
3.17466e-06
0.000185663
3.23013e-06
0.000185322
3.28817e-06
0.000184976
3.34892e-06
0.000184626
3.41258e-06
0.000184272
3.47936e-06
0.000183912
3.54952e-06
0.000183549
3.62336e-06
0.000183181
3.70119e-06
0.000182809
3.78338e-06
0.000182432
3.87033e-06
0.000182052
3.96248e-06
0.000181668
4.06029e-06
0.000181281
4.16429e-06
0.000180891
4.27502e-06
0.000180499
4.39305e-06
0.000180105
4.51899e-06
0.000179711
4.65349e-06
0.000179318
4.79716e-06
0.000178928
4.95066e-06
0.000178541
5.11462e-06
0.000178161
5.28962e-06
0.000177791
5.47618e-06
0.000177434
5.67472e-06
0.000177093
5.88553e-06
0.000176773
6.10868e-06
0.000176481
6.34398e-06
0.000176222
6.59094e-06
0.000176003
6.84863e-06
0.000175833
7.11565e-06
0.00017572
7.39e-06
0.000175673
7.66905e-06
0.000175703
7.9494e-06
0.000175817
8.22692e-06
0.000176027
8.49669e-06
0.000176338
8.75304e-06
0.000176756
8.98971e-06
0.000177284
9.20002e-06
0.00017792
9.37719e-06
0.000178659
9.51473e-06
0.00017949
9.60691e-06
9.64934e-06
0.000180398
0.000209733
8.32623e-08
0.000209716
2.45103e-07
0.000209684
5.11835e-07
0.000209627
8.93712e-07
0.000209537
1.35898e-06
0.000209406
1.84376e-06
0.000209233
2.27848e-06
0.000209019
2.61361e-06
0.000208772
2.83159e-06
0.000208501
2.9434e-06
0.000208214
2.97649e-06
0.00020792
2.96198e-06
0.000207624
2.92604e-06
0.000207328
2.8864e-06
0.000207035
2.85273e-06
0.000206746
2.82876e-06
0.000206459
2.81474e-06
0.000206174
2.80929e-06
0.000205891
2.81066e-06
0.000205609
2.81731e-06
0.000205326
2.82807e-06
0.000205043
2.84216e-06
0.000204758
2.85913e-06
0.000204471
2.87873e-06
0.000204183
2.90084e-06
0.000203892
2.92539e-06
0.000203598
2.95236e-06
0.000203302
2.98175e-06
0.000203002
3.01353e-06
0.000202699
3.04769e-06
0.000202393
3.08419e-06
0.000202083
3.12302e-06
0.00020177
3.16414e-06
0.000201452
3.20752e-06
0.000201132
3.25313e-06
0.000200807
3.30096e-06
0.000200478
3.35101e-06
0.000200146
3.4033e-06
0.00019981
3.45786e-06
0.00019947
3.51474e-06
0.000199126
3.57403e-06
0.000198778
3.63585e-06
0.000198427
3.70033e-06
0.000198072
3.76762e-06
0.000197713
3.83794e-06
0.000197351
3.91149e-06
0.000196986
3.98853e-06
0.000196618
4.06934e-06
0.000196247
4.15423e-06
0.000195874
4.24351e-06
0.000195499
4.33756e-06
0.000195122
4.43674e-06
0.000194745
4.54145e-06
0.000194368
4.65209e-06
0.000193992
4.76907e-06
0.000193618
4.89281e-06
0.000193248
5.02371e-06
0.000192883
5.16214e-06
0.000192525
5.30843e-06
0.000192177
5.46286e-06
0.000191841
5.62563e-06
0.00019152
5.7968e-06
0.000191219
5.97633e-06
0.00019094
6.16396e-06
0.00019069
6.35924e-06
0.000190472
6.56143e-06
0.000190294
6.76949e-06
0.00019016
6.98202e-06
0.000190079
7.19722e-06
0.000190056
7.41287e-06
0.000190099
7.62626e-06
0.000190214
7.83427e-06
0.000190407
8.0333e-06
0.000190685
8.2194e-06
0.000191049
8.38832e-06
0.000191504
8.53565e-06
0.000192047
8.65699e-06
0.000192676
8.74817e-06
0.000193385
8.80547e-06
0.000194166
8.82589e-06
8.80737e-06
0.000195008
0.000224424
8.97184e-08
0.000224408
2.6135e-07
0.000224377
5.42982e-07
0.000224323
9.47681e-07
0.000224237
1.44488e-06
0.000224111
1.96914e-06
0.000223943
2.44686e-06
0.000223733
2.82348e-06
0.000223488
3.077e-06
0.000223215
3.21584e-06
0.000222925
3.26691e-06
0.000222625
3.26241e-06
0.00022232
3.23041e-06
0.000222016
3.19078e-06
0.000221714
3.15498e-06
0.000221414
3.1281e-06
0.000221118
3.11124e-06
0.000220824
3.10351e-06
0.000220531
3.10336e-06
0.000220239
3.10927e-06
0.000219947
3.12003e-06
0.000219654
3.13477e-06
0.000219361
3.15296e-06
0.000219065
3.17424e-06
0.000218768
3.19841e-06
0.000218468
3.22535e-06
0.000218165
3.25498e-06
0.000217859
3.28724e-06
0.000217551
3.32207e-06
0.000217239
3.35941e-06
0.000216924
3.3992e-06
0.000216606
3.4414e-06
0.000216284
3.48594e-06
0.000215959
3.53276e-06
0.00021563
3.58183e-06
0.000215298
3.63311e-06
0.000214962
3.68657e-06
0.000214624
3.74222e-06
0.000214281
3.80007e-06
0.000213936
3.86016e-06
0.000213587
3.92254e-06
0.000213236
3.98731e-06
0.000212882
4.05457e-06
0.000212525
4.12445e-06
0.000212166
4.1971e-06
0.000211805
4.2727e-06
0.000211442
4.35145e-06
0.000211077
4.43356e-06
0.000210712
4.51927e-06
0.000210347
4.60881e-06
0.000209982
4.70243e-06
0.000209619
4.80041e-06
0.000209257
4.90298e-06
0.000208899
5.01041e-06
0.000208545
5.12292e-06
0.000208197
5.24071e-06
0.000207857
5.36396e-06
0.000207526
5.49277e-06
0.000207207
5.6272e-06
0.000206903
5.76722e-06
0.000206616
5.91266e-06
0.000206349
6.06326e-06
0.000206107
6.21858e-06
0.000205893
6.37803e-06
0.000205712
6.54077e-06
0.000205567
6.70577e-06
0.000205465
6.87171e-06
0.00020541
7.03704e-06
0.000205407
7.19988e-06
0.000205462
7.35812e-06
0.000205579
7.50935e-06
0.000205762
7.65093e-06
0.000206016
7.78004e-06
0.000206341
7.89371e-06
0.000206741
7.98895e-06
0.000207214
8.06285e-06
0.000207758
8.11268e-06
0.00020837
8.136e-06
0.000209045
8.13083e-06
0.000209775
8.09574e-06
8.02994e-06
0.000210552
0.000240144
9.63355e-08
0.000240128
2.77541e-07
0.000240098
5.73309e-07
0.000240046
9.99574e-07
0.000239963
1.52731e-06
0.000239842
2.09003e-06
0.000239679
2.61057e-06
0.000239473
3.02944e-06
0.00023923
3.32017e-06
0.000238957
3.48821e-06
0.000238665
3.55956e-06
0.00023836
3.56715e-06
0.00023805
3.54081e-06
0.000237738
3.50241e-06
0.000237428
3.46529e-06
0.00023712
3.43595e-06
0.000236815
3.41645e-06
0.000236512
3.40649e-06
0.00023621
3.40477e-06
0.00023591
3.40986e-06
0.000235609
3.42052e-06
0.000235308
3.43584e-06
0.000235006
3.45515e-06
0.000234702
3.47804e-06
0.000234396
3.50421e-06
0.000234088
3.53346e-06
0.000233778
3.56565e-06
0.000233464
3.60066e-06
0.000233148
3.63839e-06
0.000232829
3.67874e-06
0.000232506
3.72161e-06
0.000232181
3.76691e-06
0.000231852
3.81455e-06
0.00023152
3.86445e-06
0.000231186
3.91655e-06
0.000230848
3.97077e-06
0.000230507
4.02708e-06
0.000230164
4.08544e-06
0.000229818
4.14585e-06
0.00022947
4.20831e-06
0.00022912
4.27286e-06
0.000228768
4.33955e-06
0.000228414
4.40843e-06
0.000228059
4.4796e-06
0.000227703
4.55316e-06
0.000227346
4.62923e-06
0.00022699
4.70794e-06
0.000226634
4.78942e-06
0.000226279
4.87382e-06
0.000225927
4.96128e-06
0.000225577
5.05194e-06
0.000225232
5.14593e-06
0.000224891
5.24337e-06
0.000224558
5.34432e-06
0.000224232
5.44887e-06
0.000223915
5.557e-06
0.000223611
5.66867e-06
0.00022332
5.78378e-06
0.000223045
5.90213e-06
0.000222788
6.02343e-06
0.000222554
6.14728e-06
0.000222344
6.27315e-06
0.000222162
6.40039e-06
0.000222012
6.52816e-06
0.000221897
6.65548e-06
0.000221822
6.7812e-06
0.00022179
6.90397e-06
0.000221804
7.02227e-06
0.00022187
7.13442e-06
0.000221989
7.23858e-06
0.000222166
7.33281e-06
0.000222402
7.41505e-06
0.000222699
7.48324e-06
0.000223057
7.53532e-06
0.000223477
7.56934e-06
0.000223956
7.58348e-06
0.000224493
7.57619e-06
0.000225082
7.54617e-06
0.000225721
7.49251e-06
0.000226402
7.41468e-06
7.31255e-06
0.000227119
0.000256965
1.03173e-07
0.000256949
2.93897e-07
0.000256919
6.0331e-07
0.000256868
1.05019e-06
0.000256788
1.60726e-06
0.000256671
2.20739e-06
0.000256511
2.77022e-06
0.000256309
3.23162e-06
0.000256069
3.56058e-06
0.000255798
3.75943e-06