/*--------------------------------*- C++ -*----------------------------------*\
| =========                 |                                                 |
| \\      /  F ield         | OpenFOAM: The Open Source CFD Toolbox           |
|  \\    /   O peration     | Version:  4.1                                   |
|   \\  /    A nd           | Web:      www.OpenFOAM.org                      |
|    \\/     M anipulation  |                                                 |
\*---------------------------------------------------------------------------*/
FoamFile
{
    version     2.0;
    format      ascii;
    class       volVectorField;
    location    "0.8";
    object      U;
}
// * * * * * * * * * * * * * * * * * * * * * * * * * * * * * * * * * * * * * //

dimensions      [0 1 -1 0 0 0 0];

internalField   nonuniform List<vector> 
12013
(
(0.0999986 5.99581e-07 0)
(0.0999885 1.80168e-06 0)
(0.0999616 3.86328e-06 0)
(0.0999098 6.77331e-06 0)
(0.0998264 1.01984e-05 0)
(0.0997101 1.35876e-05 0)
(0.0995654 1.6415e-05 0)
(0.0994008 1.838e-05 0)
(0.0992258 1.94651e-05 0)
(0.0990482 1.98658e-05 0)
(0.098873 1.98651e-05 0)
(0.0987024 1.97239e-05 0)
(0.0985365 1.96234e-05 0)
(0.0983742 1.96558e-05 0)
(0.0982143 1.98436e-05 0)
(0.0980555 2.01695e-05 0)
(0.0978968 2.06009e-05 0)
(0.0977377 2.11044e-05 0)
(0.0975777 2.16547e-05 0)
(0.0974168 2.22359e-05 0)
(0.0972548 2.28395e-05 0)
(0.0970917 2.34633e-05 0)
(0.0969275 2.41084e-05 0)
(0.0967621 2.47781e-05 0)
(0.0965955 2.54768e-05 0)
(0.0964276 2.62087e-05 0)
(0.0962582 2.69784e-05 0)
(0.0960873 2.77904e-05 0)
(0.0959146 2.86487e-05 0)
(0.0957401 2.95568e-05 0)
(0.0955636 3.05187e-05 0)
(0.095385 3.15381e-05 0)
(0.0952039 3.2618e-05 0)
(0.0950203 3.3762e-05 0)
(0.094834 3.49737e-05 0)
(0.0946447 3.62568e-05 0)
(0.0944524 3.76152e-05 0)
(0.0942568 3.90533e-05 0)
(0.0940576 4.05767e-05 0)
(0.0938547 4.21905e-05 0)
(0.0936479 4.39016e-05 0)
(0.0934369 4.57181e-05 0)
(0.0932215 4.76488e-05 0)
(0.0930014 4.97039e-05 0)
(0.0927762 5.18961e-05 0)
(0.0925457 5.42394e-05 0)
(0.0923095 5.67507e-05 0)
(0.0920671 5.94493e-05 0)
(0.0918182 6.23575e-05 0)
(0.091562 6.55023e-05 0)
(0.0912982 6.89141e-05 0)
(0.0910259 7.263e-05 0)
(0.0907444 7.6692e-05 0)
(0.0904528 8.11514e-05 0)
(0.0901502 8.60683e-05 0)
(0.0898352 9.15145e-05 0)
(0.0895065 9.75765e-05 0)
(0.0891627 0.000104359 0)
(0.0888017 0.000111988 0)
(0.0884215 0.00012062 0)
(0.0880194 0.000130446 0)
(0.0875925 0.000141705 0)
(0.087137 0.000154699 0)
(0.0866486 0.000169809 0)
(0.0861219 0.000187529 0)
(0.0855503 0.000208498 0)
(0.0849257 0.000233566 0)
(0.0842377 0.000263868 0)
(0.0834734 0.000300955 0)
(0.0826157 0.00034698 0)
(0.0816425 0.000404986 0)
(0.0805243 0.000479366 0)
(0.0792207 0.000576584 0)
(0.0776761 0.000706362 0)
(0.0758117 0.000883633 0)
(0.0735146 0.00113181 0)
(0.0706193 0.00148837 0)
(0.0668674 0.00201641 0)
(0.0618625 0.0028416 0)
(0.0551537 0.0043143 0)
(0.0476962 0.00801614 0)
(0.0999988 1.82388e-06 0)
(0.0999888 5.50591e-06 0)
(0.0999623 1.18205e-05 0)
(0.0999111 2.07406e-05 0)
(0.0998283 3.12463e-05 0)
(0.0997128 4.16483e-05 0)
(0.0995688 5.03328e-05 0)
(0.0994049 5.63745e-05 0)
(0.0992304 5.9717e-05 0)
(0.0990531 6.09579e-05 0)
(0.0988782 6.09639e-05 0)
(0.0987077 6.05361e-05 0)
(0.0985419 6.02304e-05 0)
(0.0983798 6.03296e-05 0)
(0.09822 6.09048e-05 0)
(0.0980613 6.1903e-05 0)
(0.0979027 6.32237e-05 0)
(0.0977438 6.47662e-05 0)
(0.097584 6.64528e-05 0)
(0.0974233 6.82342e-05 0)
(0.0972616 7.0085e-05 0)
(0.0970988 7.1998e-05 0)
(0.0969348 7.39771e-05 0)
(0.0967697 7.60316e-05 0)
(0.0966034 7.81753e-05 0)
(0.0964357 8.0421e-05 0)
(0.0962666 8.27833e-05 0)
(0.0960959 8.52745e-05 0)
(0.0959236 8.7908e-05 0)
(0.0957493 9.06949e-05 0)
(0.0955731 9.36467e-05 0)
(0.0953947 9.67741e-05 0)
(0.0952139 0.000100087 0)
(0.0950306 0.000103597 0)
(0.0948446 0.000107314 0)
(0.0946557 0.00011125 0)
(0.0944637 0.000115417 0)
(0.0942683 0.000119829 0)
(0.0940695 0.000124501 0)
(0.093867 0.00012945 0)
(0.0936606 0.000134698 0)
(0.09345 0.000140267 0)
(0.093235 0.000146187 0)
(0.0930153 0.000152488 0)
(0.0927906 0.000159208 0)
(0.0925607 0.000166391 0)
(0.092325 0.000174087 0)
(0.0920832 0.000182357 0)
(0.0918349 0.000191267 0)
(0.0915795 0.000200901 0)
(0.0913164 0.000211351 0)
(0.091045 0.000222729 0)
(0.0907645 0.000235165 0)
(0.0904741 0.000248814 0)
(0.0901726 0.000263858 0)
(0.0898591 0.000280517 0)
(0.0895321 0.000299052 0)
(0.0891901 0.00031978 0)
(0.0888313 0.000343085 0)
(0.0884536 0.000369436 0)
(0.0880546 0.000399414 0)
(0.0876313 0.000433737 0)
(0.0871803 0.000473312 0)
(0.0866973 0.000519283 0)
(0.0861773 0.000573123 0)
(0.0856141 0.000636738 0)
(0.0850003 0.000712641 0)
(0.0843262 0.000804181 0)
(0.0835802 0.000915895 0)
(0.0827472 0.00105403 0)
(0.081808 0.00122733 0)
(0.0807375 0.00144824 0)
(0.0795028 0.00173478 0)
(0.0780605 0.00211343 0)
(0.0763527 0.00262362 0)
(0.0743039 0.00332445 0)
(0.0718164 0.00430392 0)
(0.0687641 0.00569063 0)
(0.0650112 0.00766727 0)
(0.0606189 0.0104305 0)
(0.0567295 0.0137977 0)
(0.0999989 3.08283e-06 0)
(0.0999892 9.38719e-06 0)
(0.0999633 2.01934e-05 0)
(0.0999131 3.54819e-05 0)
(0.0998318 5.35152e-05 0)
(0.0997179 7.13999e-05 0)
(0.0995757 8.63625e-05 0)
(0.0994134 9.68034e-05 0)
(0.0992401 0.000102612 0)
(0.0990638 0.000104803 0)
(0.0988894 0.000104858 0)
(0.0987194 0.000104152 0)
(0.0985538 0.00010364 0)
(0.0983918 0.000103812 0)
(0.0982322 0.000104795 0)
(0.0980738 0.000106501 0)
(0.0979156 0.00010876 0)
(0.097757 0.000111401 0)
(0.0975977 0.000114291 0)
(0.0974375 0.000117346 0)
(0.0972763 0.000120523 0)
(0.097114 0.000123808 0)
(0.0969506 0.000127209 0)
(0.096786 0.000130741 0)
(0.0966203 0.000134427 0)
(0.0964532 0.00013829 0)
(0.0962846 0.000142352 0)
(0.0961146 0.000146638 0)
(0.0959428 0.000151167 0)
(0.0957691 0.000155961 0)
(0.0955935 0.000161037 0)
(0.0954157 0.000166416 0)
(0.0952355 0.000172113 0)
(0.0950528 0.000178148 0)
(0.0948674 0.000184538 0)
(0.0946791 0.000191303 0)
(0.0944877 0.000198465 0)
(0.0942931 0.000206046 0)
(0.094095 0.000214073 0)
(0.0938932 0.000222576 0)
(0.0936875 0.00023159 0)
(0.0934777 0.000241155 0)
(0.0932636 0.000251319 0)
(0.0930448 0.000262136 0)
(0.0928211 0.000273671 0)
(0.0925921 0.000285997 0)
(0.0923576 0.000299201 0)
(0.092117 0.000313384 0)
(0.09187 0.000328663 0)
(0.091616 0.000345175 0)
(0.0913545 0.000363081 0)
(0.0910848 0.000382567 0)
(0.0908062 0.000403856 0)
(0.0905178 0.000427208 0)
(0.0902187 0.000452932 0)
(0.0899079 0.000481397 0)
(0.0895839 0.000513043 0)
(0.0892454 0.000548402 0)
(0.0888908 0.000588116 0)
(0.0885179 0.000632969 0)
(0.0881245 0.000683925 0)
(0.0877079 0.000742175 0)
(0.0872649 0.000809211 0)
(0.0867918 0.000886912 0)
(0.0862839 0.000977671 0)
(0.0857359 0.00108457 0)
(0.0851413 0.00121163 0)
(0.0844919 0.00136415 0)
(0.0837782 0.00154921 0)
(0.0829881 0.00177639 0)
(0.082107 0.0020588 0)
(0.0811169 0.00241466 0)
(0.0799961 0.00286941 0)
(0.0787184 0.00345881 0)
(0.0772545 0.00423297 0)
(0.0755744 0.00526089 0)
(0.0736556 0.00663311 0)
(0.0714975 0.00845646 0)
(0.0691598 0.0108275 0)
(0.0668781 0.01372 0)
(0.0652645 0.0165597 0)
(0.0999989 4.36783e-06 0)
(0.0999896 1.34162e-05 0)
(0.0999647 2.89132e-05 0)
(0.099916 5.08835e-05 0)
(0.099837 7.6856e-05 0)
(0.0997259 0.000102685 0)
(0.0995865 0.00012437 0)
(0.0994268 0.000139584 0)
(0.0992558 0.000148134 0)
(0.099081 0.000151452 0)
(0.0989077 0.000151653 0)
(0.0987382 0.000150711 0)
(0.098573 0.00015001 0)
(0.0984114 0.000150266 0)
(0.0982521 0.000151672 0)
(0.0980941 0.000154111 0)
(0.0979364 0.000157346 0)
(0.0977785 0.000161135 0)
(0.0976199 0.000165289 0)
(0.0974604 0.000169687 0)
(0.0973 0.000174266 0)
(0.0971386 0.000179006 0)
(0.0969761 0.000183917 0)
(0.0968125 0.000189022 0)
(0.0966477 0.000194351 0)
(0.0964815 0.000199937 0)
(0.0963139 0.000205814 0)
(0.0961447 0.000212013 0)
(0.0959739 0.000218566 0)
(0.0958012 0.0002255 0)
(0.0956265 0.000232842 0)
(0.0954496 0.000240619 0)
(0.0952704 0.000248856 0)
(0.0950886 0.000257579 0)
(0.0949042 0.000266815 0)
(0.0947169 0.000276591 0)
(0.0945266 0.000286937 0)
(0.094333 0.000297886 0)
(0.0941361 0.000309477 0)
(0.0939354 0.000321752 0)
(0.093731 0.000334763 0)
(0.0935225 0.000348565 0)
(0.0933097 0.000363228 0)
(0.0930924 0.000378829 0)
(0.0928702 0.000395459 0)
(0.0926429 0.000413224 0)
(0.0924101 0.000432247 0)
(0.0921714 0.000452673 0)
(0.0919264 0.000474666 0)
(0.0916747 0.000498422 0)
(0.0914156 0.000524168 0)
(0.0911486 0.00055217 0)
(0.090873 0.00058274 0)
(0.0905879 0.000616246 0)
(0.0902926 0.000653121 0)
(0.0899859 0.000693884 0)
(0.0896667 0.00073915 0)
(0.0893337 0.000789658 0)
(0.0889853 0.000846302 0)
(0.0886198 0.000910163 0)
(0.088235 0.000982566 0)
(0.0878287 0.00106514 0)
(0.0873981 0.00115991 0)
(0.0869398 0.0012694 0)
(0.0864502 0.0013968 0)
(0.0859248 0.00154617 0)
(0.0853585 0.00172273 0)
(0.0847453 0.00193324 0)
(0.0840781 0.00218658 0)
(0.0833489 0.00249444 0)
(0.0825487 0.00287238 0)
(0.0816678 0.00334119 0)
(0.0806963 0.00392858 0)
(0.0796261 0.00467122 0)
(0.0784534 0.00561644 0)
(0.077185 0.00682233 0)
(0.0758479 0.00835235 0)
(0.0745036 0.0102571 0)
(0.0732686 0.0125296 0)
(0.0723356 0.0150032 0)
(0.0719357 0.0171373 0)
(0.099999 5.67846e-06 0)
(0.0999901 1.75551e-05 0)
(0.0999663 3.78864e-05 0)
(0.0999198 6.67857e-05 0)
(0.0998439 0.000101053 0)
(0.0997367 0.000135262 0)
(0.0996015 0.000164136 0)
(0.0994456 0.000184559 0)
(0.0992777 0.000196209 0)
(0.0991053 0.000200915 0)
(0.0989335 0.000201429 0)
(0.098765 0.000200344 0)
(0.0986004 0.000199497 0)
(0.0984393 0.000199853 0)
(0.0982805 0.000201691 0)
(0.0981231 0.000204877 0)
(0.0979661 0.000209112 0)
(0.0978091 0.000214086 0)
(0.0976515 0.000219552 0)
(0.0974932 0.000225352 0)
(0.097334 0.000231404 0)
(0.0971738 0.00023768 0)
(0.0970126 0.000244191 0)
(0.0968503 0.000250964 0)
(0.0966868 0.00025804 0)
(0.096522 0.000265461 0)
(0.0963557 0.000273271 0)
(0.0961879 0.000281509 0)
(0.0960184 0.000290216 0)
(0.095847 0.000299429 0)
(0.0956736 0.000309183 0)
(0.0954981 0.000319512 0)
(0.0953202 0.00033045 0)
(0.0951399 0.00034203 0)
(0.0949569 0.000354286 0)
(0.094771 0.000367255 0)
(0.0945822 0.000380977 0)
(0.0943902 0.000395495 0)
(0.0941948 0.000410858 0)
(0.0939959 0.000427123 0)
(0.0937932 0.000444356 0)
(0.0935865 0.000462633 0)
(0.0933757 0.000482041 0)
(0.0931604 0.000502682 0)
(0.0929405 0.000524675 0)
(0.0927155 0.000548159 0)
(0.0924852 0.000573293 0)
(0.0922492 0.000600262 0)
(0.0920072 0.000629285 0)
(0.0917586 0.000660611 0)
(0.091503 0.000694534 0)
(0.0912399 0.000731397 0)
(0.0909685 0.0007716 0)
(0.0906881 0.000815614 0)
(0.090398 0.000863995 0)
(0.0900973 0.000917399 0)
(0.0897848 0.000976607 0)
(0.0894595 0.00104255 0)
(0.0891199 0.00111635 0)
(0.0887647 0.00119935 0)
(0.088392 0.00129319 0)
(0.0879999 0.00139987 0)
(0.0875861 0.00152185 0)
(0.0871482 0.00166216 0)
(0.0866834 0.00182458 0)
(0.0861884 0.00201385 0)
(0.0856597 0.00223595 0)
(0.0850936 0.00249845 0)
(0.0844862 0.00281103 0)
(0.0838336 0.00318606 0)
(0.0831325 0.00363937 0)
(0.0823809 0.00419114 0)
(0.0815796 0.00486672 0)
(0.0807343 0.00569724 0)
(0.0798588 0.00671899 0)
(0.0789806 0.00797015 0)
(0.0781466 0.00948169 0)
(0.0774298 0.0112575 0)
(0.0769306 0.0132374 0)
(0.0767614 0.0152376 0)
(0.076979 0.0168828 0)
(0.099999 7.00918e-06 0)
(0.0999906 2.17553e-05 0)
(0.0999682 4.69954e-05 0)
(0.0999244 8.29839e-05 0)
(0.0998526 0.000125825 0)
(0.0997504 0.000168815 0)
(0.0996207 0.000205361 0)
(0.0994699 0.000231493 0)
(0.0993061 0.000246698 0)
(0.0991368 0.000253154 0)
(0.0989672 0.000254233 0)
(0.0988 0.000253157 0)
(0.0986364 0.000252239 0)
(0.0984759 0.000252722 0)
(0.0983179 0.000254994 0)
(0.0981613 0.000258926 0)
(0.0980053 0.000264168 0)
(0.0978495 0.000270345 0)
(0.0976933 0.000277158 0)
(0.0975365 0.000284412 0)
(0.0973789 0.000292 0)
(0.0972204 0.000299889 0)
(0.0970609 0.000308086 0)
(0.0969004 0.000316626 0)
(0.0967386 0.000325555 0)
(0.0965755 0.000334925 0)
(0.0964111 0.000344789 0)
(0.096245 0.000355196 0)
(0.0960773 0.000366194 0)
(0.0959077 0.000377829 0)
(0.0957361 0.000390145 0)
(0.0955623 0.000403182 0)
(0.0953863 0.000416984 0)
(0.0952078 0.00043159 0)
(0.0950267 0.000447043 0)
(0.0948428 0.000463388 0)
(0.094656 0.000480675 0)
(0.094466 0.000498957 0)
(0.0942728 0.000518295 0)
(0.0940761 0.00053876 0)
(0.0938758 0.000560433 0)
(0.0936717 0.000583407 0)
(0.0934634 0.000607791 0)
(0.0932509 0.000633711 0)
(0.0930339 0.000661312 0)
(0.0928121 0.000690765 0)
(0.0925852 0.000722265 0)
(0.0923529 0.00075604 0)
(0.0921147 0.000792355 0)
(0.0918704 0.000831515 0)
(0.0916195 0.000873877 0)
(0.0913615 0.000919855 0)
(0.0910957 0.000969932 0)
(0.0908216 0.00102467 0)
(0.0905386 0.00108475 0)
(0.0902457 0.00115093 0)
(0.0899421 0.00122415 0)
(0.089627 0.0013055 0)
(0.0892991 0.00139629 0)
(0.0889573 0.00149809 0)
(0.0886002 0.00161276 0)
(0.0882265 0.00174258 0)
(0.0878345 0.00189029 0)
(0.0874226 0.00205926 0)
(0.0869889 0.00225358 0)
(0.0865317 0.00247829 0)
(0.0860492 0.0027396 0)
(0.08554 0.00304518 0)
(0.0850031 0.00340448 0)
(0.0844385 0.00382915 0)
(0.0838478 0.00433339 0)
(0.0832351 0.00493431 0)
(0.0826086 0.00565193 0)
(0.0819824 0.00650862 0)
(0.0813787 0.00752714 0)
(0.0808314 0.00872628 0)
(0.0803877 0.0101122 0)
(0.080108 0.0116634 0)
(0.0800593 0.0133088 0)
(0.0802938 0.0149023 0)
(0.080804 0.0162113 0)
(0.0999991 8.35001e-06 0)
(0.0999912 2.59611e-05 0)
(0.0999705 5.61048e-05 0)
(0.0999298 9.92392e-05 0)
(0.0998628 0.000150839 0)
(0.0997668 0.000202957 0)
(0.0996436 0.000247666 0)
(0.0994991 0.000280076 0)
(0.0993407 0.000299393 0)
(0.0991754 0.000308071 0)
(0.0990086 0.000310066 0)
(0.0988433 0.000309222 0)
(0.0986809 0.000308347 0)
(0.0985214 0.000308997 0)
(0.0983644 0.000311704 0)
(0.0982089 0.000316366 0)
(0.0980543 0.000322601 0)
(0.0979 0.000329982 0)
(0.0977456 0.000338162 0)
(0.0975907 0.000346905 0)
(0.0974351 0.000356086 0)
(0.0972788 0.000365657 0)
(0.0971215 0.000375625 0)
(0.0969631 0.000386027 0)
(0.0968036 0.000396917 0)
(0.0966428 0.000408353 0)
(0.0964805 0.000420396 0)
(0.0963167 0.000433103 0)
(0.0961512 0.000446532 0)
(0.0959839 0.000460735 0)
(0.0958145 0.000475765 0)
(0.0956431 0.000491669 0)
(0.0954694 0.000508497 0)
(0.0952933 0.000526297 0)
(0.0951146 0.00054512 0)
(0.0949332 0.00056502 0)
(0.0947489 0.000586054 0)
(0.0945616 0.000608288 0)
(0.0943712 0.000631793 0)
(0.0941774 0.000656653 0)
(0.0939801 0.000682965 0)
(0.0937791 0.00071084 0)
(0.0935742 0.000740405 0)
(0.0933653 0.000771811 0)
(0.093152 0.000805229 0)
(0.0929343 0.000840859 0)
(0.0927117 0.000878931 0)
(0.092484 0.000919712 0)
(0.092251 0.000963511 0)
(0.0920121 0.00101068 0)
(0.0917672 0.00106164 0)
(0.0915157 0.00111686 0)
(0.0912571 0.00117691 0)
(0.0909911 0.00124242 0)
(0.0907169 0.00131416 0)
(0.090434 0.001393 0)
(0.0901418 0.00147999 0)
(0.0898394 0.00157634 0)
(0.0895261 0.00168349 0)
(0.0892011 0.00180315 0)
(0.0888634 0.00193734 0)
(0.0885123 0.00208847 0)
(0.0881468 0.00225942 0)
(0.0877661 0.00245363 0)
(0.0873696 0.00267522 0)
(0.0869566 0.00292913 0)
(0.0865273 0.00322128 0)
(0.0860823 0.00355873 0)
(0.085623 0.00394984 0)
(0.0851524 0.00440446 0)
(0.0846758 0.0049339 0)
(0.084201 0.00555089 0)
(0.0837401 0.006269 0)
(0.0833103 0.00710156 0)
(0.0829353 0.00805938 0)
(0.0826462 0.00914688 0)
(0.0824811 0.0103558 0)
(0.0824822 0.0116564 0)
(0.0826876 0.0129869 0)
(0.0831159 0.0142457 0)
(0.0837426 0.015296 0)
(0.0999991 9.68987e-06 0)
(0.0999918 3.01155e-05 0)
(0.0999729 6.50723e-05 0)
(0.0999357 0.000115297 0)
(0.0998743 0.000175731 0)
(0.0997852 0.000237257 0)
(0.0996698 0.000290616 0)
(0.0995326 0.000329928 0)
(0.0993806 0.000354014 0)
(0.0992202 0.000365504 0)
(0.0990569 0.000368869 0)
(0.0988941 0.000368558 0)
(0.0987334 0.00036789 0)
(0.0985754 0.000368769 0)
(0.0984197 0.00037191 0)
(0.0982657 0.000377274 0)
(0.0981129 0.000384471 0)
(0.0979605 0.000393038 0)
(0.0978082 0.000402584 0)
(0.0976556 0.000412841 0)
(0.0975026 0.000423657 0)
(0.0973488 0.000434974 0)
(0.0971941 0.000446794 0)
(0.0970384 0.000459153 0)
(0.0968816 0.00047211 0)
(0.0967235 0.000485728 0)
(0.0965639 0.000500076 0)
(0.0964029 0.000515218 0)
(0.0962401 0.000531218 0)
(0.0960755 0.000548136 0)
(0.095909 0.00056603 0)
(0.0957404 0.000584957 0)
(0.0955695 0.000604971 0)
(0.0953963 0.000626129 0)
(0.0952206 0.000648489 0)
(0.0950422 0.000672112 0)
(0.0948611 0.000697064 0)
(0.0946771 0.000723421 0)
(0.0944901 0.000751266 0)
(0.0942998 0.000780696 0)
(0.0941063 0.000811821 0)
(0.0939092 0.000844768 0)
(0.0937085 0.000879685 0)
(0.093504 0.000916741 0)
(0.0932955 0.000956134 0)
(0.0930827 0.00099809 0)
(0.0928655 0.00104287 0)
(0.0926437 0.00109078 0)
(0.0924168 0.00114215 0)
(0.0921848 0.0011974 0)
(0.0919473 0.00125698 0)
(0.0917038 0.00132142 0)
(0.0914542 0.00139134 0)
(0.091198 0.00146744 0)
(0.0909348 0.00155055 0)
(0.0906641 0.00164161 0)
(0.0903856 0.00174175 0)
(0.0900987 0.00185224 0)
(0.089803 0.00197459 0)
(0.0894981 0.00211056 0)
(0.0891835 0.00226222 0)
(0.088859 0.00243196 0)
(0.0885243 0.0026226 0)
(0.0881796 0.00283745 0)
(0.087825 0.00308034 0)
(0.0874614 0.00335576 0)
(0.0870901 0.00366888 0)
(0.0867133 0.00402563 0)
(0.0863345 0.00443269 0)
(0.0859585 0.00489749 0)
(0.0855925 0.00542797 0)
(0.0852459 0.00603223 0)
(0.0849318 0.00671783 0)
(0.0846667 0.00749057 0)
(0.0844713 0.00835268 0)
(0.0843703 0.00930001 0)
(0.0843905 0.0103184 0)
(0.084558 0.0113792 0)
(0.0848917 0.0124357 0)
(0.0853946 0.0134221 0)
(0.086043 0.0142597 0)
(0.0999991 1.10189e-05 0)
(0.0999925 3.41656e-05 0)
(0.0999754 7.37651e-05 0)
(0.099942 0.00013091 0)
(0.0998864 0.00020014 0)
(0.099805 0.000271273 0)
(0.099698 0.000333744 0)
(0.0995692 0.000380623 0)
(0.0994243 0.000410221 0)
(0.0992698 0.000425219 0)
(0.0991108 0.000430513 0)
(0.0989511 0.000431118 0)
(0.0987928 0.000430876 0)
(0.0986367 0.000432073 0)
(0.0984829 0.000435654 0)
(0.0983309 0.000441685 0)
(0.0981801 0.000449799 0)
(0.0980301 0.000459516 0)
(0.0978804 0.000470415 0)
(0.0977306 0.000482194 0)
(0.0975804 0.00049468 0)
(0.0974297 0.000507798 0)
(0.0972781 0.000521543 0)
(0.0971255 0.00053595 0)
(0.0969719 0.000551078 0)
(0.0968169 0.000566995 0)
(0.0966606 0.000583772 0)
(0.0965027 0.000601481 0)
(0.0963432 0.000620191 0)
(0.0961819 0.000639968 0)
(0.0960186 0.000660875 0)
(0.0958533 0.000682975 0)
(0.0956859 0.000706328 0)
(0.0955161 0.000730997 0)
(0.095344 0.000757047 0)
(0.0951693 0.000784546 0)
(0.094992 0.000813569 0)
(0.0948119 0.0008442 0)
(0.094629 0.000876532 0)
(0.0944431 0.000910674 0)
(0.094254 0.000946749 0)
(0.0940617 0.000984898 0)
(0.093866 0.00102529 0)
(0.0936668 0.0010681 0)
(0.093464 0.00111356 0)
(0.0932573 0.00116191 0)
(0.0930465 0.00121345 0)
(0.0928316 0.00126849 0)
(0.0926124 0.00132742 0)
(0.0923885 0.00139067 0)
(0.0921598 0.00145873 0)
(0.0919261 0.00153217 0)
(0.0916871 0.00161164 0)
(0.0914427 0.00169789 0)
(0.0911925 0.00179177 0)
(0.0909363 0.00189426 0)
(0.0906739 0.00200649 0)
(0.0904052 0.00212978 0)
(0.09013 0.0022656 0)
(0.0898483 0.00241568 0)
(0.0895601 0.00258199 0)
(0.0892657 0.0027668 0)
(0.0889655 0.00297268 0)
(0.0886603 0.00320257 0)
(0.0883512 0.00345981 0)
(0.08804 0.00374812 0)
(0.0877289 0.00407163 0)
(0.0874214 0.00443483 0)
(0.0871218 0.00484249 0)
(0.0868359 0.00529947 0)
(0.0865713 0.00581047 0)
(0.0863375 0.00637957 0)
(0.0861463 0.00700955 0)
(0.0860116 0.00770097 0)
(0.0859495 0.00845091 0)
(0.0859773 0.00925133 0)
(0.0861121 0.0100873 0)
(0.0863685 0.0109353 0)
(0.0867543 0.0117625 0)
(0.0872665 0.0125277 0)
(0.0878866 0.0131862 0)
(0.0999991 1.23308e-05 0)
(0.0999931 3.80722e-05 0)
(0.0999778 8.20756e-05 0)
(0.0999482 0.000145872 0)
(0.0998986 0.00022375 0)
(0.099825 0.000304596 0)
(0.099727 0.000376599 0)
(0.099607 0.00043172 0)
(0.0994703 0.00046763 0)
(0.0993223 0.000486916 0)
(0.0991685 0.000494787 0)
(0.0990128 0.000496772 0)
(0.0988575 0.000497233 0)
(0.098704 0.000498875 0)
(0.0985525 0.00050292 0)
(0.0984029 0.000509585 0)
(0.0982548 0.000518565 0)
(0.0981076 0.000529388 0)
(0.0979609 0.000541611 0)
(0.0978143 0.00055491 0)
(0.0976674 0.000569088 0)
(0.0975201 0.000584055 0)
(0.097372 0.000599794 0)
(0.097223 0.000616334 0)
(0.097073 0.000633733 0)
(0.0969217 0.00065206 0)
(0.096769 0.000671388 0)
(0.0966148 0.000691793 0)
(0.096459 0.000713347 0)
(0.0963014 0.000736119 0)
(0.096142 0.000760178 0)
(0.0959805 0.000785591 0)
(0.095817 0.000812423 0)
(0.0956513 0.000840741 0)
(0.0954833 0.000870616 0)
(0.0953129 0.000902123 0)
(0.09514 0.000935343 0)
(0.0949646 0.000970366 0)
(0.0947864 0.0010073 0)
(0.0946056 0.00104625 0)
(0.0944218 0.00108737 0)
(0.0942351 0.00113079 0)
(0.0940453 0.00117671 0)
(0.0938524 0.00122532 0)
(0.0936562 0.00127685 0)
(0.0934566 0.00133158 0)
(0.0932535 0.0013898 0)
(0.0930468 0.00145187 0)
(0.0928364 0.00151818 0)
(0.0926221 0.00158919 0)
(0.0924039 0.00166539 0)
(0.0921815 0.00174739 0)
(0.091955 0.00183583 0)
(0.0917241 0.00193148 0)
(0.091489 0.00203519 0)
(0.0912495 0.00214792 0)
(0.0910056 0.00227078 0)
(0.0907576 0.002405 0)
(0.0905054 0.002552 0)
(0.0902496 0.00271336 0)
(0.0899906 0.00289086 0)
(0.089729 0.00308648 0)
(0.0894659 0.00330243 0)
(0.0892025 0.00354112 0)
(0.0889407 0.0038052 0)
(0.0886827 0.00409749 0)
(0.0884316 0.00442093 0)
(0.088191 0.0047785 0)
(0.0879658 0.0051731 0)
(0.0877618 0.00560731 0)
(0.0875859 0.00608313 0)
(0.0874465 0.00660158 0)
(0.0873533 0.00716222 0)
(0.0873167 0.0077625 0)
(0.0873481 0.00839707 0)
(0.0874586 0.00905704 0)
(0.0876582 0.00972923 0)
(0.0879539 0.0103958 0)
(0.088348 0.0110347 0)
(0.0888356 0.0116206 0)
(0.0894034 0.012128 0)
(0.0999992 1.36244e-05 0)
(0.0999936 4.18156e-05 0)
(0.0999801 8.99397e-05 0)
(0.099954 0.000160044 0)
(0.0999102 0.000246323 0)
(0.0998444 0.000336899 0)
(0.0997553 0.000418786 0)
(0.0996446 0.000482795 0)
(0.0995163 0.000525835 0)
(0.0993758 0.000550238 0)
(0.0992279 0.000561403 0)
(0.0990769 0.000565299 0)
(0.0989254 0.000566801 0)
(0.0987752 0.000569058 0)
(0.0986267 0.000573619 0)
(0.0984801 0.000580902 0)
(0.0983351 0.000590702 0)
(0.0981911 0.00060258 0)
(0.0980479 0.000616095 0)
(0.0979048 0.000630905 0)
(0.0977617 0.000646791 0)
(0.0976182 0.000663646 0)
(0.097474 0.00068144 0)
(0.097329 0.000700192 0)
(0.0971829 0.000719956 0)
(0.0970357 0.000740798 0)
(0.0968871 0.000762792 0)
(0.096737 0.000786012 0)
(0.0965854 0.000810534 0)
(0.096432 0.000836428 0)
(0.0962768 0.000863765 0)
(0.0961198 0.000892614 0)
(0.0959607 0.000923045 0)
(0.0957996 0.000955128 0)
(0.0956363 0.000988937 0)
(0.0954709 0.00102455 0)
(0.0953031 0.00106206 0)
(0.0951329 0.00110156 0)
(0.0949603 0.00114315 0)
(0.0947852 0.00118697 0)
(0.0946076 0.00123315 0)
(0.0944273 0.00128186 0)
(0.0942444 0.00133328 0)
(0.0940587 0.00138763 0)
(0.0938702 0.00144514 0)
(0.0936788 0.0015061 0)
(0.0934845 0.00157082 0)
(0.0932872 0.00163965 0)
(0.093087 0.001713 0)
(0.0928837 0.00179132 0)
(0.0926773 0.00187512 0)
(0.0924679 0.00196497 0)
(0.0922555 0.00206153 0)
(0.0920401 0.00216552 0)
(0.0918219 0.00227776 0)
(0.091601 0.00239915 0)
(0.0913778 0.0025307 0)
(0.0911525 0.00267355 0)
(0.0909256 0.00282894 0)
(0.0906978 0.00299823 0)
(0.0904699 0.00318291 0)
(0.0902429 0.0033846 0)
(0.0900182 0.00360503 0)
(0.0897975 0.00384601 0)
(0.089583 0.00410941 0)
(0.0893771 0.0043971 0)
(0.0891831 0.00471088 0)
(0.0890047 0.00505234 0)
(0.0888465 0.00542279 0)
(0.0887135 0.00582298 0)
(0.0886119 0.00625296 0)
(0.0885481 0.00671174 0)
(0.0885293 0.00719701 0)
(0.088563 0.00770482 0)
(0.0886564 0.00822921 0)
(0.088816 0.00876199 0)
(0.0890469 0.00929257 0)
(0.0893519 0.00980811 0)
(0.0897304 0.010294 0)
(0.0901777 0.0107348 0)
(0.0906843 0.0111158 0)
(0.0999992 1.49049e-05 0)
(0.0999941 4.53995e-05 0)
(0.0999821 9.73449e-05 0)
(0.0999592 0.000173371 0)
(0.0999207 0.000267739 0)
(0.0998622 0.000367972 0)
(0.0997817 0.000460006 0)
(0.0996802 0.000533488 0)
(0.0995607 0.000584442 0)
(0.0994279 0.000614796 0)
(0.0992868 0.000630002 0)
(0.0991412 0.000636392 0)
(0.0989944 0.000639325 0)
(0.0988482 0.000642418 0)
(0.0987035 0.000647587 0)
(0.0985605 0.000655498 0)
(0.098419 0.000666088 0)
(0.0982788 0.000678984 0)
(0.0981393 0.00069376 0)
(0.0980003 0.000710069 0)
(0.0978612 0.000727676 0)
(0.0977218 0.000746452 0)
(0.0975819 0.000766354 0)
(0.0974412 0.000787391 0)
(0.0972995 0.000809605 0)
(0.0971567 0.000833057 0)
(0.0970125 0.000857819 0)
(0.096867 0.000883962 0)
(0.0967199 0.000911559 0)
(0.0965712 0.000940683 0)
(0.0964208 0.000971404 0)
(0.0962686 0.00100379 0)
(0.0961145 0.00103791 0)
(0.0959586 0.00107385 0)
(0.0958006 0.00111167 0)
(0.0956406 0.00115145 0)
(0.0954786 0.00119329 0)
(0.0953144 0.00123729 0)
(0.095148 0.00128355 0)
(0.0949795 0.00133221 0)
(0.0948088 0.00138342 0)
(0.0946358 0.00143733 0)
(0.0944606 0.00149414 0)
(0.094283 0.00155407 0)
(0.0941032 0.00161736 0)
(0.0939211 0.00168427 0)
(0.0937368 0.00175514 0)
(0.0935502 0.0018303 0)
(0.0933613 0.00191015 0)
(0.0931704 0.00199513 0)
(0.0929773 0.00208573 0)
(0.0927824 0.00218249 0)
(0.0925856 0.00228601 0)
(0.0923873 0.00239696 0)
(0.0921877 0.00251608 0)
(0.0919872 0.00264418 0)
(0.0917862 0.00278212 0)
(0.0915853 0.00293087 0)
(0.0913852 0.00309144 0)
(0.0911868 0.00326493 0)
(0.090991 0.00345248 0)
(0.0907993 0.00365529 0)
(0.0906132 0.00387455 0)
(0.0904345 0.00411146 0)
(0.0902654 0.00436713 0)
(0.0901086 0.00464255 0)
(0.089967 0.00493852 0)
(0.0898441 0.00525553 0)
(0.0897437 0.00559362 0)
(0.0896702 0.00595232 0)
(0.0896281 0.00633041 0)
(0.0896223 0.00672581 0)
(0.0896577 0.00713542 0)
(0.089739 0.00755494 0)
(0.0898705 0.00797884 0)
(0.0900556 0.00840027 0)
(0.0902965 0.0088112 0)
(0.0905934 0.00920263 0)
(0.0909447 0.00956503 0)
(0.0913463 0.00988891 0)
(0.0917914 0.0101657 0)
(0.0999992 1.61826e-05 0)
(0.0999945 4.88507e-05 0)
(0.0999838 0.000104333 0)
(0.0999636 0.000185891 0)
(0.0999297 0.000287996 0)
(0.0998777 0.000397739 0)
(0.0998053 0.000500086 0)
(0.0997125 0.000583521 0)
(0.0996018 0.000643094 0)
(0.0994772 0.000680188 0)
(0.0993432 0.000700178 0)
(0.099204 0.000709666 0)
(0.0990626 0.000714465 0)
(0.0989212 0.000718665 0)
(0.0987808 0.000724582 0)
(0.098642 0.000733172 0)
(0.0985047 0.000744553 0)
(0.0983686 0.000758447 0)
(0.0982333 0.000774466 0)
(0.0980986 0.000792267 0)
(0.0979639 0.000811605 0)
(0.097829 0.000832334 0)
(0.0976936 0.000854392 0)
(0.0975575 0.000877774 0)
(0.0974204 0.000902511 0)
(0.0972823 0.000928656 0)
(0.097143 0.000956271 0)
(0.0970023 0.000985425 0)
(0.0968602 0.00101619 0)
(0.0967166 0.00104862 0)
(0.0965714 0.00108281 0)
(0.0964245 0.0011188 0)
(0.096276 0.00115668 0)
(0.0961257 0.00119651 0)
(0.0959736 0.00123836 0)
(0.0958197 0.00128233 0)
(0.095664 0.00132849 0)
(0.0955064 0.00137695 0)
(0.095347 0.00142783 0)
(0.0951858 0.00148124 0)
(0.0950228 0.00153734 0)
(0.0948579 0.00159628 0)
(0.0946913 0.00165826 0)
(0.0945228 0.00172349 0)
(0.0943527 0.00179219 0)
(0.0941809 0.00186465 0)
(0.0940076 0.00194115 0)
(0.0938327 0.00202203 0)
(0.0936565 0.00210764 0)
(0.0934791 0.00219841 0)
(0.0933007 0.00229477 0)
(0.0931215 0.00239721 0)
(0.0929418 0.00250626 0)
(0.0927619 0.0026225 0)
(0.0925822 0.00274655 0)
(0.0924033 0.00287908 0)
(0.0922258 0.00302079 0)
(0.0920503 0.00317242 0)
(0.0918778 0.00333473 0)
(0.0917092 0.00350852 0)
(0.0915457 0.00369455 0)
(0.0913888 0.00389358 0)
(0.0912399 0.0041063 0)
(0.0911011 0.00433332 0)
(0.0909744 0.0045751 0)
(0.0908621 0.0048319 0)
(0.0907669 0.00510372 0)
(0.0906917 0.00539023 0)
(0.0906396 0.00569068 0)
(0.0906137 0.00600381 0)
(0.0906175 0.00632778 0)
(0.0906542 0.00666008 0)
(0.0907269 0.00699748 0)
(0.0908383 0.00733602 0)
(0.0909908 0.00767098 0)
(0.0911856 0.00799702 0)
(0.0914231 0.00830825 0)
(0.0917028 0.00859847 0)
(0.0920223 0.0088615 0)
(0.0923784 0.00909145 0)
(0.0927662 0.0092832 0)
(0.0999992 1.74722e-05 0)
(0.0999948 5.22133e-05 0)
(0.0999851 0.000110986 0)
(0.0999671 0.000197717 0)
(0.0999371 0.000307203 0)
(0.0998908 0.000426254 0)
(0.0998255 0.000538978 0)
(0.0997409 0.000632723 0)
(0.0996387 0.0007015 0)
(0.0995223 0.000746034 0)
(0.099396 0.000771503 0)
(0.0992636 0.000784691 0)
(0.0991283 0.000791817 0)
(0.0989924 0.000797438 0)
(0.0988571 0.000804294 0)
(0.098723 0.000813661 0)
(0.0985903 0.000825873 0)
(0.0984588 0.000840775 0)
(0.0983281 0.000858038 0)
(0.0981979 0.000877337 0)
(0.0980679 0.00089842 0)
(0.0979378 0.000921129 0)
(0.0978072 0.000945383 0)
(0.0976759 0.000971161 0)
(0.0975438 0.00099848 0)
(0.0974108 0.00102738 0)
(0.0972765 0.00105792 0)
(0.0971411 0.00109014 0)
(0.0970043 0.00112413 0)
(0.0968662 0.00115994 0)
(0.0967266 0.00119762 0)
(0.0965855 0.00123725 0)
(0.0964429 0.0012789 0)
(0.0962987 0.00132262 0)
(0.096153 0.00136849 0)
(0.0960058 0.00141659 0)
(0.0958571 0.001467 0)
(0.0957068 0.00151982 0)
(0.0955551 0.00157516 0)
(0.0954019 0.00163314 0)
(0.0952473 0.0016939 0)
(0.0950913 0.0017576 0)
(0.0949341 0.0018244 0)
(0.0947757 0.00189451 0)
(0.0946161 0.00196815 0)
(0.0944556 0.00204555 0)
(0.0942942 0.002127 0)
(0.0941322 0.00221279 0)
(0.0939697 0.00230323 0)
(0.0938069 0.00239869 0)
(0.0936442 0.00249955 0)
(0.0934818 0.0026062 0)
(0.0933201 0.0027191 0)
(0.0931596 0.0028387 0)
(0.0930008 0.00296548 0)
(0.0928443 0.00309995 0)
(0.0926908 0.0032426 0)
(0.0925411 0.00339396 0)
(0.0923961 0.00355451 0)
(0.092257 0.00372472 0)
(0.0921249 0.00390501 0)
(0.0920012 0.00409573 0)
(0.0918874 0.00429712 0)
(0.0917852 0.0045093 0)
(0.0916965 0.00473219 0)
(0.0916233 0.00496553 0)
(0.0915678 0.00520876 0)
(0.0915321 0.00546102 0)
(0.0915185 0.00572112 0)
(0.0915294 0.00598743 0)
(0.091567 0.00625791 0)
(0.0916333 0.00653006 0)
(0.09173 0.00680094 0)
(0.0918586 0.00706717 0)
(0.0920199 0.007325 0)
(0.0922141 0.00757041 0)
(0.0924407 0.00779919 0)
(0.0926987 0.00800716 0)
(0.0929859 0.00819027 0)
(0.0932994 0.00834488 0)
(0.0936358 0.00846785 0)
(0.0999992 1.87884e-05 0)
(0.099995 5.554e-05 0)
(0.0999861 0.000117413 0)
(0.0999699 0.000209012 0)
(0.0999429 0.000325545 0)
(0.0999014 0.000453668 0)
(0.0998424 0.000576741 0)
(0.0997652 0.000681017 0)
(0.0996711 0.000759443 0)
(0.0995628 0.000811998 0)
(0.0994443 0.000843561 0)
(0.0993192 0.000861018 0)
(0.0991906 0.000870937 0)
(0.0990607 0.000878328 0)
(0.098931 0.000886358 0)
(0.0988023 0.000896649 0)