/*--------------------------------*- C++ -*----------------------------------*\
| =========                 |                                                 |
| \\      /  F ield         | OpenFOAM: The Open Source CFD Toolbox           |
|  \\    /   O peration     | Version:  4.1                                   |
|   \\  /    A nd           | Web:      www.OpenFOAM.org                      |
|    \\/     M anipulation  |                                                 |
\*---------------------------------------------------------------------------*/
FoamFile
{
    version     2.0;
    format      ascii;
    class       surfaceScalarField;
    location    "0.6";
    object      phi;
}
// * * * * * * * * * * * * * * * * * * * * * * * * * * * * * * * * * * * * * //

dimensions      [1 0 -1 0 0 0 0];

internalField   nonuniform List<scalar> 
23692
(
1.16342e-05
7.27051e-10
1.16307e-05
3.54586e-09
1.16225e-05
8.218e-09
1.1609e-05
1.3427e-08
1.15914e-05
1.76363e-08
1.15715e-05
1.99541e-08
1.15511e-05
2.0404e-08
1.15315e-05
1.9617e-08
1.15132e-05
1.8343e-08
1.14961e-05
1.71265e-08
1.14799e-05
1.62198e-08
1.14643e-05
1.56535e-08
1.1449e-05
1.53472e-08
1.14339e-05
1.5196e-08
1.14188e-05
1.51137e-08
1.14039e-05
1.50455e-08
1.1389e-05
1.4964e-08
1.13742e-05
1.48585e-08
1.13596e-05
1.47277e-08
1.13452e-05
1.45739e-08
1.13309e-05
1.44006e-08
1.13169e-05
1.42102e-08
1.13031e-05
1.40047e-08
1.12895e-05
1.37849e-08
1.12762e-05
1.35518e-08
1.12631e-05
1.3306e-08
1.12504e-05
1.30484e-08
1.12379e-05
1.27801e-08
1.12257e-05
1.25024e-08
1.12139e-05
1.2217e-08
1.12023e-05
1.19259e-08
1.11911e-05
1.16314e-08
1.11802e-05
1.1336e-08
1.11696e-05
1.10421e-08
1.11593e-05
1.07526e-08
1.11494e-05
1.04704e-08
1.11397e-05
1.01987e-08
1.11304e-05
9.94046e-09
1.11213e-05
9.69906e-09
1.11124e-05
9.47775e-09
1.11038e-05
9.2805e-09
1.10954e-05
9.11101e-09
1.10871e-05
8.97341e-09
1.1079e-05
8.87256e-09
1.10709e-05
8.81343e-09
1.10629e-05
8.80181e-09
1.10549e-05
8.84371e-09
1.10468e-05
8.9466e-09
1.10385e-05
9.11842e-09
1.103e-05
9.36828e-09
1.10212e-05
9.70653e-09
1.10119e-05
1.01453e-08
1.10022e-05
1.06981e-08
1.09917e-05
1.13811e-08
1.09805e-05
1.22128e-08
1.09682e-05
1.32155e-08
1.09548e-05
1.44149e-08
1.094e-05
1.58422e-08
1.09234e-05
1.75346e-08
1.09049e-05
1.95374e-08
1.0884e-05
2.19059e-08
1.08603e-05
2.47087e-08
1.08333e-05
2.80309e-08
1.08024e-05
3.19803e-08
1.07668e-05
3.66943e-08
1.07254e-05
4.23508e-08
1.06773e-05
4.91826e-08
1.06209e-05
5.75e-08
1.05542e-05
6.77225e-08
1.04748e-05
8.04272e-08
1.03794e-05
9.64231e-08
1.02636e-05
1.16866e-07
1.01212e-05
1.43438e-07
9.94361e-06
1.78638e-07
9.71838e-06
2.2625e-07
9.42731e-06
2.92095e-07
9.04313e-06
3.85207e-07
8.52433e-06
5.19808e-07
7.80543e-06
7.19901e-07
6.77591e-06
1.03052e-06
1.57133e-06
5.20557e-06
1.24492e-05
1.4357e-09
1.24455e-05
7.24357e-09
1.24369e-05
1.68789e-08
1.24226e-05
2.76463e-08
1.24039e-05
3.63696e-08
1.23827e-05
4.11967e-08
1.2361e-05
4.21653e-08
1.234e-05
4.05695e-08
1.23204e-05
3.79571e-08
1.23021e-05
3.54522e-08
1.22848e-05
3.35796e-08
1.22681e-05
3.24057e-08
1.22518e-05
3.17671e-08
1.22356e-05
3.14483e-08
1.22195e-05
3.12732e-08
1.22035e-05
3.11289e-08
1.21876e-05
3.09579e-08
1.21718e-05
3.07382e-08
1.21562e-05
3.04673e-08
1.21408e-05
3.015e-08
1.21256e-05
2.97929e-08
1.21106e-05
2.9401e-08
1.20958e-05
2.8978e-08
1.20813e-05
2.8526e-08
1.2067e-05
2.80468e-08
1.20531e-05
2.75417e-08
1.20394e-05
2.70129e-08
1.2026e-05
2.64619e-08
1.2013e-05
2.58921e-08
1.20003e-05
2.53067e-08
1.19879e-05
2.47099e-08
1.19759e-05
2.41067e-08
1.19642e-05
2.35013e-08
1.19528e-05
2.28998e-08
1.19418e-05
2.23078e-08
1.19311e-05
2.17312e-08
1.19207e-05
2.11764e-08
1.19106e-05
2.06498e-08
1.19008e-05
2.01584e-08
1.18912e-05
1.97088e-08
1.18819e-05
1.93089e-08
1.18728e-05
1.89664e-08
1.18638e-05
1.86903e-08
1.1855e-05
1.84902e-08
1.18462e-05
1.83766e-08
1.18375e-05
1.83607e-08
1.18288e-05
1.8456e-08
1.18199e-05
1.86769e-08
1.18109e-05
1.90399e-08
1.18016e-05
1.95638e-08
1.1792e-05
2.027e-08
1.1782e-05
2.11828e-08
1.17713e-05
2.23303e-08
1.176e-05
2.37451e-08
1.17477e-05
2.54656e-08
1.17345e-05
2.75362e-08
1.17199e-05
3.00099e-08
1.17039e-05
3.29495e-08
1.16861e-05
3.64305e-08
1.16661e-05
4.05441e-08
1.16437e-05
4.54018e-08
1.16184e-05
5.11403e-08
1.15896e-05
5.79301e-08
1.15567e-05
6.59852e-08
1.1519e-05
7.55768e-08
1.14754e-05
8.70536e-08
1.14248e-05
1.00869e-07
1.13658e-05
1.17622e-07
1.12965e-05
1.38111e-07
1.12147e-05
1.63421e-07
1.11172e-05
1.95046e-07
1.10001e-05
2.35074e-07
1.08581e-05
2.86462e-07
1.06844e-05
3.53446e-07
1.04697e-05
4.42126e-07
1.02016e-05
5.61265e-07
9.86477e-06
7.23135e-07
9.44163e-06
9.44023e-07
8.91871e-06
1.2439e-06
8.31245e-06
1.63784e-06
2.07436e-06
7.81048e-06
1.33213e-05
2.10645e-09
1.33175e-05
1.10193e-08
1.33086e-05
2.58548e-08
1.32937e-05
4.24989e-08
1.32741e-05
5.60516e-08
1.32516e-05
6.36275e-08
1.32286e-05
6.52484e-08
1.32063e-05
6.28836e-08
1.31854e-05
5.89094e-08
1.31658e-05
5.50652e-08
1.31472e-05
5.21713e-08
1.31293e-05
5.03417e-08
1.31118e-05
4.93339e-08
1.30945e-05
4.8821e-08
1.30774e-05
4.85331e-08
1.30603e-05
4.82976e-08
1.30433e-05
4.80246e-08
1.30265e-05
4.768e-08
1.30099e-05
4.72588e-08
1.29934e-05
4.67677e-08
1.29771e-05
4.62164e-08
1.29611e-05
4.56126e-08
1.29454e-05
4.49616e-08
1.29299e-05
4.42668e-08
1.29146e-05
4.35309e-08
1.28997e-05
4.2756e-08
1.28851e-05
4.19448e-08
1.28708e-05
4.11007e-08
1.28569e-05
4.0228e-08
1.28432e-05
3.93325e-08
1.283e-05
3.84204e-08
1.2817e-05
3.74988e-08
1.28045e-05
3.65756e-08
1.27922e-05
3.56589e-08
1.27803e-05
3.47577e-08
1.27688e-05
3.38816e-08
1.27575e-05
3.30398e-08
1.27466e-05
3.22425e-08
1.2736e-05
3.15001e-08
1.27256e-05
3.08236e-08
1.27154e-05
3.02244e-08
1.27054e-05
2.97147e-08
1.26956e-05
2.93085e-08
1.26859e-05
2.90203e-08
1.26763e-05
2.88658e-08
1.26667e-05
2.88633e-08
1.26571e-05
2.90326e-08
1.26473e-05
2.93962e-08
1.26373e-05
2.99795e-08
1.26271e-05
3.0811e-08
1.26164e-05
3.19232e-08
1.26053e-05
3.33535e-08
1.25936e-05
3.51448e-08
1.2581e-05
3.73465e-08
1.25676e-05
4.00162e-08
1.2553e-05
4.32219e-08
1.25371e-05
4.70428e-08
1.25196e-05
5.15735e-08
1.25003e-05
5.69269e-08
1.24787e-05
6.32389e-08
1.24546e-05
7.06745e-08
1.24275e-05
7.94358e-08
1.23969e-05
8.97723e-08
1.2362e-05
1.01995e-07
1.23223e-05
1.16494e-07
1.22768e-05
1.33767e-07
1.22244e-05
1.54453e-07
1.21639e-05
1.79381e-07
1.20935e-05
2.09641e-07
1.20115e-05
2.46678e-07
1.19153e-05
2.92432e-07
1.1802e-05
3.49521e-07
1.16682e-05
4.21502e-07
1.15096e-05
5.13197e-07
1.13218e-05
6.31062e-07
1.11008e-05
7.83473e-07
1.08446e-05
9.80496e-07
1.05576e-05
1.23222e-06
1.0259e-05
1.54362e-06
9.99948e-06
1.89851e-06
2.21501e-06
9.85997e-06
1.42545e-05
2.71295e-09
1.42508e-05
1.47763e-08
1.42416e-05
3.4973e-08
1.42264e-05
5.77644e-08
1.4206e-05
7.64675e-08
1.41825e-05
8.70879e-08
1.41582e-05
8.95773e-08
1.41346e-05
8.65617e-08
1.41123e-05
8.12606e-08
1.40913e-05
7.60557e-08
1.40714e-05
7.20913e-08
1.40523e-05
6.95511e-08
1.40336e-05
6.81236e-08
1.40151e-05
6.73754e-08
1.39968e-05
6.69433e-08
1.39786e-05
6.65919e-08
1.39605e-05
6.61984e-08
1.39426e-05
6.5714e-08
1.39249e-05
6.51298e-08
1.39074e-05
6.44541e-08
1.38901e-05
6.36986e-08
1.3873e-05
6.28734e-08
1.38562e-05
6.19857e-08
1.38397e-05
6.10396e-08
1.38235e-05
6.00382e-08
1.38076e-05
5.89853e-08
1.3792e-05
5.78845e-08
1.37767e-05
5.67404e-08
1.37618e-05
5.55588e-08
1.37472e-05
5.43478e-08
1.3733e-05
5.31158e-08
1.37191e-05
5.18727e-08
1.37056e-05
5.0629e-08
1.36924e-05
4.93963e-08
1.36796e-05
4.81866e-08
1.36671e-05
4.70128e-08
1.36549e-05
4.58879e-08
1.3643e-05
4.48256e-08
1.36314e-05
4.38401e-08
1.362e-05
4.29464e-08
1.36089e-05
4.216e-08
1.3598e-05
4.14981e-08
1.35872e-05
4.09788e-08
1.35765e-05
4.06224e-08
1.35658e-05
4.04506e-08
1.35551e-05
4.04878e-08
1.35444e-05
4.0761e-08
1.35335e-05
4.13008e-08
1.35224e-05
4.21415e-08
1.35109e-05
4.33214e-08
1.34991e-05
4.48846e-08
1.34867e-05
4.68813e-08
1.34736e-05
4.93688e-08
1.34597e-05
5.24133e-08
1.34448e-05
5.60918e-08
1.34287e-05
6.04937e-08
1.34112e-05
6.57244e-08
1.33921e-05
7.19079e-08
1.3371e-05
7.91919e-08
1.33478e-05
8.7753e-08
1.33219e-05
9.78041e-08
1.3293e-05
1.09604e-07
1.32606e-05
1.23468e-07
1.3224e-05
1.39788e-07
1.31828e-05
1.59046e-07
1.3136e-05
1.8185e-07
1.30827e-05
2.08966e-07
1.3022e-05
2.41368e-07
1.29526e-05
2.80304e-07
1.28732e-05
3.27382e-07
1.27823e-05
3.84682e-07
1.26782e-05
4.54889e-07
1.25595e-05
5.41456e-07
1.24252e-05
6.48736e-07
1.22755e-05
7.82033e-07
1.21129e-05
9.47336e-07
1.19443e-05
1.15031e-06
1.17841e-05
1.3937e-06
1.16571e-05
1.67181e-06
1.15975e-05
1.95934e-06
2.19357e-06
1.16202e-05
1.52531e-05
3.22277e-09
1.52495e-05
1.83986e-08
1.52405e-05
4.40215e-08
1.52251e-05
7.31644e-08
1.52042e-05
9.73366e-08
1.518e-05
1.1136e-07
1.51545e-05
1.15031e-07
1.51295e-05
1.11579e-07
1.51058e-05
1.05056e-07
1.50834e-05
9.85074e-08
1.50621e-05
9.34356e-08
1.50415e-05
9.01225e-08
1.50215e-05
8.82104e-08
1.50018e-05
8.7169e-08
1.49823e-05
8.65464e-08
1.4963e-05
8.60447e-08
1.49438e-05
8.55044e-08
1.49248e-05
8.48603e-08
1.4906e-05
8.40981e-08
1.48874e-05
8.32253e-08
1.4869e-05
8.22557e-08
1.48509e-05
8.12004e-08
1.48331e-05
8.00678e-08
1.48155e-05
7.8863e-08
1.47983e-05
7.75909e-08
1.47813e-05
7.6255e-08
1.47647e-05
7.48603e-08
1.47485e-05
7.34129e-08
1.47325e-05
7.1921e-08
1.47169e-05
7.03939e-08
1.47017e-05
6.8843e-08
1.46868e-05
6.72809e-08
1.46723e-05
6.57211e-08
1.46581e-05
6.41782e-08
1.46443e-05
6.26679e-08
1.46308e-05
6.12062e-08
1.46176e-05
5.981e-08
1.46046e-05
5.84966e-08
1.4592e-05
5.7284e-08
1.45796e-05
5.61914e-08
1.45673e-05
5.52388e-08
1.45553e-05
5.44478e-08
1.45434e-05
5.38417e-08
1.45315e-05
5.34458e-08
1.45197e-05
5.32882e-08
1.45078e-05
5.33994e-08
1.44958e-05
5.38138e-08
1.44836e-05
5.457e-08
1.44711e-05
5.57108e-08
1.44583e-05
5.72849e-08
1.4445e-05
5.93472e-08
1.44311e-05
6.19601e-08
1.44165e-05
6.51949e-08
1.4401e-05
6.91336e-08
1.43845e-05
7.38708e-08
1.43667e-05
7.95164e-08
1.43476e-05
8.61983e-08
1.43267e-05
9.40666e-08
1.43039e-05
1.03299e-07
1.42789e-05
1.14105e-07
1.42513e-05
1.26736e-07
1.42207e-05
1.41494e-07
1.41868e-05
1.58742e-07
1.41491e-05
1.78924e-07
1.41069e-05
2.0258e-07
1.40597e-05
2.30374e-07
1.40069e-05
2.63126e-07
1.39478e-05
3.01849e-07
1.38817e-05
3.47803e-07
1.38079e-05
4.02548e-07
1.3726e-05
4.68011e-07
1.36357e-05
5.46547e-07
1.35375e-05
6.40975e-07
1.34331e-05
7.54541e-07
1.33257e-05
8.9072e-07
1.32217e-05
1.05267e-06
1.31313e-05
1.24204e-06
1.30696e-05
1.45673e-06
1.30557e-05
1.68709e-06
1.31058e-05
1.9105e-06
2.08658e-06
1.32141e-05
1.63217e-05
3.60051e-09
1.63183e-05
2.17585e-08
1.63096e-05
5.276e-08
1.62944e-05
8.83767e-08
1.62734e-05
1.18326e-07
1.62486e-05
1.36171e-07
1.62222e-05
1.41441e-07
1.6196e-05
1.37876e-07
1.61708e-05
1.30319e-07
1.61468e-05
1.22491e-07
1.6124e-05
1.16291e-07
1.61021e-05
1.12139e-07
1.60807e-05
1.09662e-07
1.60597e-05
1.08253e-07
1.60389e-05
1.07379e-07
1.60184e-05
1.06679e-07
1.59981e-05
1.05957e-07
1.5978e-05
1.05127e-07
1.59581e-05
1.04169e-07
1.59384e-05
1.03085e-07
1.5919e-05
1.0189e-07
1.58998e-05
1.00597e-07
1.5881e-05
9.92125e-08
1.58624e-05
9.77447e-08
1.58441e-05
9.61977e-08
1.58261e-05
9.45769e-08
1.58085e-05
9.2888e-08
1.57912e-05
9.11387e-08
1.57742e-05
8.9339e-08
1.57576e-05
8.75008e-08
1.57413e-05
8.56379e-08
1.57254e-05
8.37655e-08
1.57099e-05
8.19005e-08
1.56946e-05
8.00606e-08
1.56797e-05
7.82648e-08
1.56651e-05
7.65326e-08
1.56508e-05
7.48845e-08
1.56367e-05
7.33419e-08
1.56229e-05
7.19266e-08
1.56094e-05
7.06617e-08
1.55959e-05
6.95718e-08
1.55827e-05
6.86829e-08
1.55695e-05
6.80235e-08
1.55563e-05
6.76244e-08
1.55432e-05
6.75191e-08
1.55299e-05
6.77448e-08
1.55165e-05
6.8343e-08
1.55029e-05
6.93597e-08
1.54889e-05
7.08465e-08
1.54746e-05
7.28612e-08
1.54597e-05
7.54688e-08
1.54442e-05
7.87434e-08
1.54279e-05
8.27689e-08
1.54107e-05
8.76408e-08
1.53925e-05
9.34694e-08
1.53729e-05
1.00381e-07
1.5352e-05
1.08523e-07
1.53294e-05
1.18064e-07
1.53049e-05
1.29206e-07
1.52782e-05
1.4218e-07
1.52491e-05
1.57263e-07
1.52173e-05
1.74782e-07
1.51824e-05
1.95123e-07
1.5144e-05
2.1875e-07
1.51018e-05
2.46215e-07
1.50555e-05
2.78181e-07
1.50046e-05
3.15442e-07
1.4949e-05
3.58948e-07
1.48884e-05
4.0983e-07
1.4823e-05
4.69428e-07
1.47532e-05
5.393e-07
1.468e-05
6.21219e-07
1.46053e-05
7.17119e-07
1.45323e-05
8.28954e-07
1.44661e-05
9.58399e-07
1.44139e-05
1.1063e-06
1.43857e-05
1.27172e-06
1.43934e-05
1.45044e-06
1.44489e-05
1.63304e-06
1.45579e-05
1.80287e-06
1.93594e-06
1.47099e-05
1.74651e-05
3.80969e-09
1.74622e-05
2.47279e-08
1.7454e-05
6.09429e-08
1.74393e-05
1.03062e-07
1.74186e-05
1.39072e-07
1.73936e-05
1.6121e-07
1.73664e-05
1.68596e-07
1.7339e-05
1.65348e-07
1.73123e-05
1.57035e-07
1.72868e-05
1.48049e-07
1.72624e-05
1.40723e-07
1.7239e-05
1.35667e-07
1.72162e-05
1.32535e-07
1.71939e-05
1.30668e-07
1.71719e-05
1.29464e-07
1.71502e-05
1.28507e-07
1.71287e-05
1.27559e-07
1.71075e-05
1.26513e-07
1.70865e-05
1.25336e-07
1.70658e-05
1.24026e-07
1.70453e-05
1.22595e-07
1.70251e-05
1.21054e-07
1.70052e-05
1.19414e-07
1.69855e-05
1.1768e-07
1.69662e-05
1.15857e-07
1.69472e-05
1.13952e-07
1.69286e-05
1.11973e-07
1.69102e-05
1.09927e-07
1.68922e-05
1.07828e-07
1.68746e-05
1.05689e-07
1.68572e-05
1.03527e-07
1.68403e-05
1.01359e-07
1.68236e-05
9.92067e-08
1.68073e-05
9.70898e-08
1.67912e-05
9.5031e-08
1.67755e-05
9.30533e-08
1.676e-05
9.11808e-08
1.67448e-05
8.94385e-08
1.67297e-05
8.7852e-08
1.67149e-05
8.64486e-08
1.67002e-05
8.52573e-08
1.66856e-05
8.43087e-08
1.6671e-05
8.36359e-08
1.66565e-05
8.32747e-08
1.66418e-05
8.32647e-08
1.66271e-05
8.3649e-08
1.66122e-05
8.44757e-08
1.6597e-05
8.57978e-08
1.65814e-05
8.76746e-08
1.65654e-05
9.01722e-08
1.65489e-05
9.33649e-08
1.65316e-05
9.7336e-08
1.65136e-05
1.0218e-07
1.64946e-05
1.08004e-07
1.64746e-05
1.14928e-07
1.64533e-05
1.23094e-07
1.64307e-05
1.32658e-07
1.64064e-05
1.43805e-07
1.63804e-05
1.56745e-07
1.63524e-05
1.71724e-07
1.63221e-05
1.89024e-07
1.62895e-05
2.08976e-07
1.62542e-05
2.31962e-07
1.62161e-05
2.58431e-07
1.61749e-05
2.88903e-07
1.61307e-05
3.23981e-07
1.60833e-05
3.64363e-07
1.6033e-05
4.10848e-07
1.59801e-05
4.64343e-07
1.59252e-05
5.25852e-07
1.58696e-05
5.9646e-07
1.58151e-05
6.77278e-07
1.57645e-05
7.6935e-07
1.57215e-05
8.73487e-07
1.56914e-05
9.8999e-07
1.5681e-05
1.11823e-06
1.56982e-05
1.25605e-06
1.57512e-05
1.39898e-06
1.58463e-05
1.53947e-06
1.59842e-05
1.66646e-06
1.76634e-06
1.61553e-05
1.86887e-05
3.82093e-09
1.86862e-05
2.71947e-08
1.86788e-05
6.8347e-08
1.8665e-05
1.16899e-07
1.86449e-05
1.59212e-07
1.862e-05
1.86145e-07
1.85924e-05
1.96248e-07
1.85639e-05
1.9385e-07
1.85358e-05
1.85146e-07
1.85087e-05
1.75183e-07
1.84828e-05
1.66764e-07
1.84577e-05
1.60749e-07
1.84335e-05
1.56865e-07
1.84098e-05
1.5444e-07
1.83866e-05
1.52818e-07
1.83637e-05
1.51532e-07
1.83411e-05
1.50306e-07
1.83188e-05
1.49007e-07
1.82967e-05
1.47584e-07
1.82749e-05
1.4603e-07
1.82534e-05
1.44351e-07
1.82322e-05
1.42558e-07
1.82112e-05
1.40657e-07
1.81906e-05
1.38656e-07
1.81703e-05
1.3656e-07
1.81502e-05
1.34376e-07
1.81305e-05
1.32113e-07
1.81112e-05
1.29782e-07
1.80921e-05
1.27396e-07
1.80734e-05
1.24972e-07
1.8055e-05
1.22529e-07
1.80369e-05
1.20089e-07
1.80191e-05
1.17673e-07
1.80017e-05
1.15306e-07
1.79845e-05
1.13014e-07
1.79675e-05
1.10823e-07
1.79508e-05
1.0876e-07
1.79343e-05
1.06854e-07
1.7918e-05
1.05135e-07
1.79018e-05
1.03634e-07
1.78857e-05
1.02383e-07
1.78697e-05
1.01417e-07
1.78537e-05
1.00775e-07
1.78376e-05
1.00496e-07
1.78215e-05
1.00626e-07
1.78052e-05
1.01214e-07
1.77886e-05
1.02312e-07
1.77718e-05
1.03981e-07
1.77545e-05
1.06285e-07
1.77368e-05
1.09299e-07
1.77184e-05
1.13102e-07
1.76994e-05
1.17787e-07
1.76796e-05
1.23454e-07
1.76589e-05
1.30218e-07
1.76372e-05
1.38207e-07
1.76143e-05
1.47567e-07
1.759e-05
1.58461e-07
1.75643e-05
1.71077e-07
1.75371e-05
1.85625e-07
1.75081e-05
2.02346e-07
1.74772e-05
2.21514e-07
1.74444e-05
2.4344e-07
1.74095e-05
2.68475e-07
1.73726e-05
2.97018e-07
1.73336e-05
3.29518e-07
1.72928e-05
3.66473e-07
1.72504e-05
4.08434e-07
1.7207e-05
4.55996e-07
1.71632e-05
5.09787e-07
1.71203e-05
5.70444e-07
1.70799e-05
6.38571e-07
1.70441e-05
7.14675e-07
1.70161e-05
7.99073e-07
1.69995e-05
8.91742e-07
1.6999e-05
9.92132e-07
1.702e-05
1.0989e-06
1.7068e-05
1.20963e-06
1.71482e-05
1.32046e-06
1.72633e-05
1.42596e-06
1.74122e-05
1.51922e-06
1.59267e-06
1.75874e-05
1.9998e-05
3.61556e-09
1.99961e-05
2.90779e-08
1.99897e-05
7.47976e-08
1.99769e-05
1.29621e-07
1.99577e-05
1.78425e-07
1.99333e-05
2.10658e-07
1.99054e-05
2.24129e-07
1.98761e-05
2.23192e-07
1.98468e-05
2.14539e-07
1.98181e-05
2.03841e-07
1.97906e-05
1.94403e-07
1.9764e-05
1.8739e-07
1.97383e-05
1.82664e-07
1.97133e-05
1.79574e-07
1.96888e-05
1.77438e-07
1.96647e-05
1.75746e-07
1.9641e-05
1.74184e-07
1.96176e-05
1.72589e-07
1.95945e-05
1.70894e-07
1.95717e-05
1.69077e-07
1.95491e-05
1.67139e-07
1.95269e-05
1.65085e-07
1.95049e-05
1.62923e-07
1.94833e-05
1.60656e-07
1.9462e-05
1.58292e-07
1.94409e-05
1.55839e-07
1.94202e-05
1.53304e-07
1.93998e-05
1.50702e-07
1.93797e-05
1.48049e-07
1.93599e-05
1.45362e-07
1.93404e-05
1.42664e-07
1.93212e-05
1.39979e-07
1.93023e-05
1.37331e-07
1.92836e-05
1.34748e-07
1.92652e-05
1.32259e-07
1.9247e-05
1.29893e-07
1.9229e-05
1.2768e-07
1.92112e-05
1.25654e-07
1.91935e-05
1.23845e-07
1.91759e-05
1.2229e-07
1.91584e-05
1.21025e-07
1.91409e-05
1.20088e-07
1.91234e-05
1.19522e-07
1.91057e-05
1.19372e-07
1.9088e-05
1.19685e-07
1.907e-05
1.20517e-07
1.90518e-05
1.21924e-07
1.90332e-05
1.23971e-07
1.90142e-05
1.26729e-07
1.89947e-05
1.30276e-07
1.89746e-05
1.34696e-07
1.89538e-05
1.40086e-07
1.89323e-05
1.46549e-07
1.89099e-05
1.54204e-07
1.88866e-05
1.6318e-07
1.88622e-05
1.7362e-07
1.88366e-05
1.85688e-07
1.88098e-05
1.9956e-07
1.87817e-05
2.15438e-07
1.87523e-05
2.33542e-07
1.87214e-05
2.54119e-07
1.86892e-05
2.77439e-07
1.86556e-05
3.03801e-07
1.86209e-05
3.33528e-07
1.85852e-05
3.66966e-07
1.8549e-05
4.04483e-07
1.85127e-05
4.46455e-07
1.84773e-05
4.93255e-07
1.84436e-05
5.45233e-07
1.84132e-05
6.02683e-07
1.83877e-05
6.65802e-07
1.83696e-05
7.34631e-07
1.83615e-05
8.0898e-07
1.83666e-05
8.88333e-07
1.83888e-05
9.71734e-07
1.84318e-05
1.05766e-06
1.84993e-05
1.14393e-06
1.85939e-05
1.22756e-06
1.87167e-05
1.30489e-06
1.88659e-05
1.37175e-06
1.42397e-06
1.90363e-05
2.13989e-05
3.18853e-09
2.13977e-05
3.03404e-08
2.13923e-05
8.01963e-08
2.13809e-05
1.4105e-07
2.13629e-05
1.96466e-07
2.13391e-05
2.3447e-07
2.13113e-05
2.51971e-07
2.12813e-05
2.53147e-07
2.12509e-05
2.45047e-07
2.12209e-05
2.33911e-07
2.11918e-05
2.23572e-07
2.11637e-05
2.15553e-07
2.11365e-05
2.09909e-07
2.11102e-05
2.06056e-07
2.10844e-05
2.03311e-07
2.10592e-05
2.01133e-07
2.10344e-05
1.99173e-07
2.10099e-05
1.97239e-07
2.09858e-05
1.9524e-07
2.0962e-05
1.93141e-07
2.09384e-05
1.90933e-07
2.09152e-05
1.88615e-07
2.08923e-05
1.86191e-07
2.08697e-05
1.83665e-07
2.08473e-05
1.81043e-07
2.08253e-05
1.78332e-07
2.08036e-05
1.75544e-07
2.07821e-05
1.72692e-07
2.0761e-05
1.69796e-07
2.07401e-05
1.66874e-07
2.07195e-05
1.63953e-07
2.06991e-05
1.61057e-07
2.0679e-05
1.58214e-07
2.06592e-05
1.55455e-07
2.06395e-05
1.52811e-07
2.062e-05
1.50314e-07
2.06007e-05
1.47998e-07
2.05815e-05
1.45897e-07
2.05624e-05
1.44047e-07
2.05433e-05
1.42486e-07
2.05243e-05
1.41254e-07
2.05052e-05
1.40392e-07
2.04861e-05
1.39947e-07
2.04668e-05
1.39966e-07
2.04473e-05
1.40501e-07
2.04277e-05
1.4161e-07
2.04077e-05
1.43353e-07
2.03874e-05
1.45798e-07
2.03666e-05
1.49018e-07
2.03454e-05
1.53093e-07
2.03236e-05
1.5811e-07
2.03012e-05
1.64164e-07
2.0278e-05
1.71359e-07
2.02541e-05
1.7981e-07
2.02294e-05
1.89641e-07
2.02038e-05
2.00989e-07
2.01773e-05
2.14003e-07
2.01498e-05
2.28844e-07
2.01214e-05
2.45688e-07
2.0092e-05
2.64725e-07
2.00618e-05
2.86158e-07
2.00309e-05
3.10202e-07
1.99995e-05
3.37085e-07
1.99679e-05
3.67037e-07
1.99365e-05
4.00291e-07
1.99058e-05
4.37072e-07
1.98766e-05
4.77583e-07
1.98498e-05
5.21991e-07
1.98265e-05
5.70403e-07
1.98083e-05
6.22839e-07
1.97968e-05
6.79198e-07
1.97941e-05
7.39214e-07
1.98026e-05
8.02413e-07
1.98248e-05
8.68057e-07
1.98633e-05
9.35097e-07
1.99207e-05
1.00213e-06
1.99991e-05
1.06739e-06
2.00998e-05
1.12874e-06
2.02228e-05
1.1838e-06
2.03662e-05
1.2301e-06
1.26538e-06
2.05267e-05
2.2898e-05
2.55228e-09
2.28974e-05
3.09935e-08
2.2893e-05
8.4529e-08
2.2883e-05
1.51116e-07
2.28663e-05
2.1319e-07
2.28434e-05
2.57371e-07
2.28159e-05
2.7953e-07
2.27856e-05
2.83472e-07
2.27542e-05
2.76456e-07
2.2723e-05
2.65227e-07
2.26925e-05
2.54149e-07
2.2663e-05
2.45155e-07
2.26344e-05
2.38545e-07
2.26068e-05
2.33847e-07
2.25798e-05
2.30407e-07
2.25534e-05
2.27667e-07
2.25275e-05
2.25249e-07
2.2502e-05
2.22932e-07
2.24769e-05
2.206e-07
2.24521e-05
2.18201e-07
2.24276e-05
2.15713e-07
2.24034e-05
2.13129e-07
2.23796e-05
2.10447e-07
2.23559e-05
2.07671e-07
2.23326e-05
2.04804e-07
2.23096e-05
2.01855e-07
2.22868e-05
1.98835e-07
2.22644e-05
1.95761e-07
2.22421e-05
1.92652e-07
2.22202e-05
1.8953e-07
2.21984e-05
1.86422e-07
2.21769e-05
1.83356e-07
2.21556e-05
1.80362e-07
2.21344e-05
1.77473e-07
2.21135e-05
1.74721e-07
2.20926e-05
1.72142e-07
2.20719e-05
1.6977e-07
2.20513e-05
1.67644e-07
2.20307e-05
1.65801e-07
2.20101e-05
1.64283e-07
2.19895e-05
1.6313e-07
2.19688e-05
1.62387e-07
2.1948e-05
1.62102e-07
2.19271e-05
1.62326e-07
2.19059e-05
1.63112e-07
2.18845e-05
1.64519e-07
2.18628e-05
1.66611e-07
2.18408e-05
1.69453e-07
2.18183e-05
1.73121e-07
2.17954e-05
1.77692e-07
2.17719e-05
1.83252e-07
2.1748e-05
1.89892e-07
2.17234e-05
1.97711e-07
2.16982e-05
2.06814e-07
2.16724e-05
2.17315e-07
2.16459e-05
2.29335e-07
2.16188e-05
2.43001e-07
2.15911e-05
2.58451e-07
2.15629e-05
2.75826e-07
2.15343e-05
2.95273e-07
2.15055e-05
3.16943e-07
2.14768e-05
3.40986e-07
2.14483e-05
3.67549e-07
2.14206e-05
3.96767e-07
2.13941e-05
4.28761e-07
2.13696e-05
4.6362e-07
2.13478e-05
5.01398e-07
2.13298e-05
5.4209e-07
2.13166e-05
5.8562e-07
2.13097e-05
6.3182e-07
2.13105e-05
6.80403e-07
2.13208e-05
7.30943e-07
2.13424e-05
7.82853e-07
2.13771e-05
8.35362e-07
2.14267e-05
8.87506e-07
2.14927e-05
9.38129e-07
2.15762e-05
9.85899e-07
2.16776e-05
1.02936e-06
2.17964e-05
1.06701e-06
2.1931e-05
1.09741e-06
1.11933e-06
2.2079e-05
2.4502e-05
1.73094e-09
2.4502e-05
3.10914e-08
2.44986e-05
8.78613e-08
2.44899e-05
1.59854e-07
2.44746e-05
2.28558e-07
2.44527e-05
2.79232e-07
2.44257e-05
3.06601e-07
2.43953e-05
3.13925e-07
2.43633e-05
3.08526e-07
2.4331e-05
2.97577e-07
2.42992e-05
2.85967e-07
2.42684e-05
2.76071e-07
2.42386e-05
2.68483e-07
2.42097e-05
2.62886e-07
2.41815e-05
2.58681e-07
2.41541e-05
2.55315e-07
2.41271e-05
2.52386e-07
2.41006e-05
2.49645e-07
2.40745e-05
2.46953e-07
2.40487e-05
2.44237e-07
2.40233e-05
2.41463e-07
2.39982e-05
2.38614e-07
2.39733e-05
2.35683e-07
2.39488e-05
2.3267e-07
2.39245e-05
2.29577e-07
2.39004e-05
2.26414e-07
2.38766e-05
2.23191e-07
2.38531e-05
2.19927e-07
2.38298e-05
2.16642e-07
2.38067e-05
2.1336e-07
2.37837e-05
2.10109e-07
2.3761e-05
2.06918e-07
2.37384e-05
2.03821e-07
2.3716e-05
2.0085e-07
2.36937e-05
1.98041e-07
2.36714e-05
1.9543e-07
2.36493e-05
1.93055e-07
2.36271e-05
1.90954e-07
2.3605e-05
1.89167e-07
2.35828e-05
1.87735e-07
2.35606e-05
1.86704e-07
2.35383e-05
1.86118e-07
2.35158e-05
1.86026e-07
2.34931e-05
1.86479e-07
2.34703e-05
1.87531e-07
2.34472e-05
1.89242e-07
2.34238e-05
1.91673e-07
2.34e-05
1.94889e-07
2.33759e-05
1.98962e-07
2.33514e-05
2.03966e-07
2.33265e-05
2.09979e-07
2.33012e-05
2.17085e-07
2.32754e-05
2.25373e-07
2.32492e-05
2.34934e-07
2.32227e-05
2.45865e-07
2.31957e-05
2.58263e-07
2.31685e-05
2.72232e-07
2.31411e-05
2.87873e-07
2.31137e-05
3.05289e-07
2.30865e-05
3.24579e-07
2.30597e-05
3.45835e-07
2.30337e-05
3.69141e-07
2.30088e-05
3.94565e-07
2.29856e-05
4.22154e-07
2.29646e-05
4.51925e-07
2.29465e-05
4.83861e-07
2.29322e-05
5.17895e-07
2.29225e-05
5.53901e-07
2.29186e-05
5.91685e-07
2.29217e-05
6.30969e-07
2.29328e-05
6.71381e-07
2.29535e-05
7.12446e-07
2.2985e-05
7.53577e-07
2.30284e-05
7.94079e-07
2.30849e-05
8.33152e-07
2.31553e-05
8.69909e-07
2.32399e-05
9.03404e-07
2.33387e-05
9.32673e-07
2.3451e-05
9.56788e-07
2.35756e-05
9.74928e-07
9.86449e-07
2.37106e-05
2.62184e-05
7.5733e-10
2.62188e-05
3.0719e-08
2.62163e-05
9.03193e-08
2.62088e-05
1.67385e-07
2.61948e-05
2.4263e-07
2.6174e-05
3.0001e-07
2.61476e-05
3.33037e-07
2.61173e-05
3.44288e-07
2.60849e-05
3.41011e-07
2.60518e-05
3.30727e-07
2.6019e-05
3.18825e-07
2.5987e-05
3.08145e-07
2.5956e-05
2.99609e-07
2.59259e-05
2.93091e-07
2.58967e-05
2.88078e-07
2.58681e-05
2.84036e-07
2.58402e-05
2.80553e-07
2.58127e-05
2.77357e-07
2.57856e-05
2.74282e-07
2.57589e-05
2.71238e-07
2.57326e-05
2.68175e-07
2.57065e-05
2.65066e-07
2.56807e-05
2.61898e-07
2.56551e-05
2.58666e-07
2.56298e-05
2.55372e-07
2.56048e-05
2.52024e-07
2.55799e-05
2.48633e-07
2.55553e-05
2.45217e-07
2.55309e-05
2.41798e-07
2.55066e-05
2.38401e-07
2.54825e-05
2.35054e-07
2.54585e-05
2.3179e-07
2.54346e-05
2.2864e-07
2.54108e-05
2.2564e-07
2.53871e-05
2.22827e-07
2.53634e-05
2.20236e-07
2.53397e-05
2.17906e-07
2.5316e-05
2.15878e-07
2.52923e-05
2.14191e-07
2.52685e-05
2.12888e-07
2.52446e-05
2.12013e-07
2.52206e-05
2.11612e-07
2.51965e-05
2.11732e-07
2.51721e-05
2.12424e-07
2.51475e-05
2.13741e-07
2.51228e-05
2.15739e-07
2.50977e-05
2.18477e-07
2.50724e-05
2.22016e-07
2.50468e-05
2.2642e-07
2.50209e-05
2.31757e-07
2.49947e-05
2.38095e-07
2.49682e-05
2.45507e-07
2.49416e-05
2.54064e-07
2.49147e-05
2.63842e-07
2.48877e-05
2.74913e-07
2.48608e-05
2.87351e-07
2.48339e-05
3.01226e-07
2.48074e-05
3.16603e-07
2.47813e-05
3.33543e-07
2.4756e-05
3.52094e-07
2.47318e-05
3.72294e-07
2.4709e-05
3.94164e-07
2.46882e-05
4.17701e-07
2.46697e-05
4.42878e-07
2.46543e-05
4.69634e-07
2.46426e-05
4.97869e-07
2.46354e-05
5.27438e-07
2.46334e-05
5.58143e-07
2.46377e-05
5.89727e-07
2.46491e-05
6.21871e-07
2.46686e-05
6.54189e-07
2.46971e-05
6.86227e-07
2.47356e-05
7.17467e-07
2.47846e-05
7.47335e-07
2.48448e-05
7.75212e-07
2.49166e-05
8.00455e-07
2.49998e-05
8.22419e-07
2.50943e-05
8.40487e-07
2.51992e-05
8.54104e-07
2.53135e-05
8.62813e-07
8.66287e-07
2.54359e-05
2.80549e-05
-3.34913e-10
2.80557e-05
2.99736e-08
2.80539e-05
9.20611e-08
2.80474e-05
1.73887e-07
2.80346e-05
2.55534e-07
2.80149e-05
3.19734e-07
2.79892e-05
3.58752e-07
2.79591e-05
3.74382e-07
2.79265e-05
3.73682e-07
2.78929e-05
3.64439e-07
2.78593e-05
3.52512e-07
2.78263e-05
3.41203e-07
2.77943e-05
3.31788e-07
2.77631e-05
3.24364e-07
2.77329e-05
3.18527e-07
2.77033e-05
3.13782e-07
2.76744e-05
3.09717e-07
2.76459e-05
3.06042e-07
2.76179e-05
3.0257e-07
2.75903e-05
2.99192e-07
2.75629e-05
2.95842e-07
2.75359e-05
2.92484e-07
2.75092e-05
2.89096e-07
2.74826e-05
2.85671e-07
2.74563e-05
2.82206e-07
2.74302e-05
2.78707e-07
2.74043e-05
2.75187e-07
2.73786e-05
2.71663e-07
2.7353e-05
2.68157e-07
2.73275e-05
2.64694e-07
2.73021e-05
2.61304e-07
2.72768e-05
2.58018e-07
2.72516e-05
2.5487e-07
2.72264e-05
2.51894e-07
2.72012e-05
2.49127e-07
2.7176e-05
2.46607e-07
2.71508e-05
2.44371e-07
2.71255e-05
2.42458e-07
2.71002e-05
2.4091e-07
2.70748e-05
2.39766e-07
2.70492e-05
2.39072e-07
2.70235e-05
2.38869e-07
2.69977e-05
2.39205e-07
2.69717e-05
2.40128e-07
2.69455e-05
2.41686e-07
2.69191e-05
2.43932e-07
2.68925e-05
2.46917e-07
2.68657e-05
2.50696e-07
2.68388e-05
2.55326e-07
2.68117e-05
2.6086e-07
2.67845e-05
2.67357e-07
2.67572e-05
2.74872e-07
2.67299e-05
2.8346e-07
2.67028e-05
2.93173e-07
2.66758e-05
3.0406e-07
2.66493e-05
3.16164e-07
2.66232e-05
3.29525e-07
2.6598e-05
3.4417e-07
2.65737e-05
3.60116e-07
2.65508e-05
3.7737e-07
2.65295e-05
3.95916e-07
2.65104e-05
4.15725e-07
2.64937e-05
4.36738e-07
2.64802e-05
4.58872e-07
2.64702e-05
4.82013e-07
2.64645e-05
5.06011e-07
2.64637e-05
5.30676e-07
2.64685e-05
5.55781e-07
2.64797e-05
5.81052e-07
2.64978e-05
6.06177e-07
2.65237e-05
6.30798e-07
2.65578e-05
6.54524e-07
2.66008e-05
6.76932e-07
2.6653e-05
6.97578e-07
2.67147e-05
7.1601e-07
2.67858e-05
7.31782e-07
2.68661e-05
7.44473e-07
2.69553e-05
7.53702e-07
2.70526e-05
7.59151e-07
2.71573e-05
7.60578e-07
7.57832e-07
2.72681e-05
3.002e-05
-1.51421e-09
3.0021e-05
2.8953e-08
3.00199e-05
9.32533e-08
3.00142e-05
1.79561e-07
3.00023e-05
2.6744e-07
2.99836e-05
3.38485e-07
2.99587e-05
3.83717e-07
2.9929e-05
4.04075e-07
2.98964e-05
4.06343e-07
2.98625e-05
3.98495e-07
2.98283e-05
3.86815e-07
2.97945e-05
3.75061e-07
2.97615e-05
3.64875e-07
2.97295e-05
3.56594e-07
2.96982e-05
3.49947e-07
2.96677e-05
3.44495e-07
2.96378e-05
3.39837e-07
2.96084e-05
3.35673e-07
2.95795e-05
3.318e-07
2.95509e-05
3.28089e-07
2.95227e-05
3.24462e-07
2.94947e-05
3.20871e-07
2.9467e-05
3.17287e-07
2.94395e-05
3.13697e-07
2.94121e-05
3.10096e-07
2.9385e-05
3.06487e-07
2.9358e-05
3.02883e-07
2.93311e-05
2.99299e-07
2.93042e-05
2.95756e-07
2.92775e-05
2.9228e-07
2.92508e-05
2.889e-07
2.92242e-05
2.85647e-07
2.91976e-05
2.82553e-07
2.91709e-05
2.79653e-07
2.91443e-05
2.76983e-07
2.91175e-05
2.74578e-07
2.90908e-05
2.72475e-07
2.90639e-05
2.70714e-07
2.90369e-05
2.69332e-07
2.90099e-05
2.68368e-07
2.89827e-05
2.67863e-07
2.89553e-05
2.67858e-07
2.89279e-05
2.68395e-07
2.89002e-05
2.69518e-07
2.88725e-05
2.7127e-07
2.88446e-05
2.73696e-07
2.88167e-05
2.7684e-07
2.87887e-05
2.80747e-07
2.87606e-05
2.85461e-07
2.87325e-05
2.91025e-07
2.87046e-05
2.97479e-07
2.86768e-05
3.04863e-07
2.86493e-05
3.13209e-07
2.86223e-05
3.22548e-07
2.85957e-05
3.32903e-07
2.857e-05
3.44288e-07
2.85452e-05
3.56711e-07
2.85217e-05
3.70165e-07
2.84996e-05
3.84632e-07
2.84794e-05
4.00077e-07
2.84614e-05
4.1645e-07
2.84459e-05
4.33677e-07
2.84336e-05
4.51665e-07
2.84247e-05
4.70294e-07
2.84199e-05
4.8942e-07
2.84196e-05
5.08869e-07
2.84244e-05
5.28442e-07
2.84349e-05
5.47907e-07
2.84515e-05
5.6701e-07
2.84749e-05
5.8547e-07
2.85053e-05
6.02984e-07
2.85432e-05
6.19237e-07
2.85888e-05
6.33904e-07
2.86423e-05
6.46659e-07
2.87037e-05
6.5719e-07
2.87729e-05
6.652e-07
2.88495e-05
6.70428e-07
2.89331e-05
6.72653e-07
2.9023e-05
6.71701e-07
2.91187e-05
6.67459e-07
6.59871e-07
2.92192e-05
3.21227e-05
-2.75332e-09
3.2124e-05
2.77432e-08
3.21232e-05
9.40507e-08
3.21182e-05
1.84601e-07
3.21071e-05
2.78533e-07
3.20892e-05
3.56379e-07
3.2065e-05
4.07945e-07
3.20359e-05
4.33284e-07
3.20035e-05
4.38837e-07
3.19693e-05
4.32701e-07
3.19347e-05
4.21538e-07