/*--------------------------------*- C++ -*----------------------------------*\
| =========                 |                                                 |
| \\      /  F ield         | OpenFOAM: The Open Source CFD Toolbox           |
|  \\    /   O peration     | Version:  4.1                                   |
|   \\  /    A nd           | Web:      www.OpenFOAM.org                      |
|    \\/     M anipulation  |                                                 |
\*---------------------------------------------------------------------------*/
FoamFile
{
    version     2.0;
    format      ascii;
    class       volVectorField;
    location    "0.6";
    object      U;
}
// * * * * * * * * * * * * * * * * * * * * * * * * * * * * * * * * * * * * * //

dimensions      [0 1 -1 0 0 0 0];

internalField   nonuniform List<vector> 
12013
(
(0.1 5.88692e-07 0)
(0.0999872 2.93384e-06 0)
(0.0999399 6.92814e-06 0)
(0.0998466 1.15413e-05 0)
(0.0997098 1.54592e-05 0)
(0.0995439 1.78379e-05 0)
(0.0993672 1.86029e-05 0)
(0.0991936 1.8242e-05 0)
(0.0990303 1.7399e-05 0)
(0.0988787 1.65724e-05 0)
(0.0987365 1.60132e-05 0)
(0.0986007 1.57686e-05 0)
(0.0984684 1.57755e-05 0)
(0.0983381 1.59388e-05 0)
(0.0982086 1.61759e-05 0)
(0.0980799 1.64312e-05 0)
(0.0979519 1.6675e-05 0)
(0.0978249 1.68944e-05 0)
(0.0976991 1.70862e-05 0)
(0.0975746 1.72515e-05 0)
(0.0974518 1.73928e-05 0)
(0.0973308 1.75115e-05 0)
(0.0972118 1.76087e-05 0)
(0.0970948 1.76844e-05 0)
(0.09698 1.77382e-05 0)
(0.0968676 1.77699e-05 0)
(0.0967577 1.77796e-05 0)
(0.0966504 1.77672e-05 0)
(0.0965457 1.77335e-05 0)
(0.0964439 1.76799e-05 0)
(0.0963449 1.76084e-05 0)
(0.0962488 1.75213e-05 0)
(0.0961557 1.7422e-05 0)
(0.0960655 1.73136e-05 0)
(0.0959783 1.72006e-05 0)
(0.0958939 1.70879e-05 0)
(0.0958125 1.69805e-05 0)
(0.0957337 1.68849e-05 0)
(0.0956576 1.68073e-05 0)
(0.095584 1.67551e-05 0)
(0.0955127 1.67373e-05 0)
(0.0954435 1.6763e-05 0)
(0.095376 1.68427e-05 0)
(0.0953102 1.69892e-05 0)
(0.0952455 1.72165e-05 0)
(0.0951817 1.75409e-05 0)
(0.0951182 1.79807e-05 0)
(0.0950547 1.85581e-05 0)
(0.0949905 1.92979e-05 0)
(0.0949251 2.02294e-05 0)
(0.0948576 2.13867e-05 0)
(0.0947874 2.281e-05 0)
(0.0947134 2.45453e-05 0)
(0.0946347 2.66485e-05 0)
(0.09455 2.91847e-05 0)
(0.094458 3.22329e-05 0)
(0.0943571 3.58859e-05 0)
(0.0942455 4.02576e-05 0)
(0.094121 4.54849e-05 0)
(0.0939813 5.17368e-05 0)
(0.0938234 5.92205e-05 0)
(0.0936439 6.81963e-05 0)
(0.0934387 7.899e-05 0)
(0.0932031 9.20165e-05 0)
(0.0929309 0.000107811 0)
(0.0926151 0.00012707 0)
(0.0922465 0.000150716 0)
(0.091814 0.000179988 0)
(0.0913031 0.000216579 0)
(0.0906954 0.000262844 0)
(0.0899666 0.000322129 0)
(0.089084 0.00039928 0)
(0.0880035 0.000501483 0)
(0.0866633 0.00063963 0)
(0.0849758 0.000830632 0)
(0.0828143 0.00110136 0)
(0.0799912 0.0014955 0)
(0.0762096 0.00208786 0)
(0.0710074 0.00302915 0)
(0.063839 0.00474045 0)
(0.0557735 0.00911764 0)
(0.100001 1.76492e-06 0)
(0.0999881 8.93963e-06 0)
(0.0999417 2.11769e-05 0)
(0.0998495 3.53275e-05 0)
(0.0997139 4.73606e-05 0)
(0.0995491 5.4682e-05 0)
(0.0993731 5.70555e-05 0)
(0.0991999 5.59708e-05 0)
(0.0990369 5.34005e-05 0)
(0.0988853 5.08726e-05 0)
(0.0987431 4.91589e-05 0)
(0.0986072 4.8407e-05 0)
(0.098475 4.84243e-05 0)
(0.0983446 4.89209e-05 0)
(0.0982153 4.96444e-05 0)
(0.0980867 5.0425e-05 0)
(0.0979588 5.11709e-05 0)
(0.097832 5.18426e-05 0)
(0.0977063 5.24307e-05 0)
(0.097582 5.29386e-05 0)
(0.0974593 5.33733e-05 0)
(0.0973385 5.37395e-05 0)
(0.0972195 5.40398e-05 0)
(0.0971026 5.42745e-05 0)
(0.0969879 5.44428e-05 0)
(0.0968755 5.45441e-05 0)
(0.0967656 5.45783e-05 0)
(0.0966582 5.45451e-05 0)
(0.0965535 5.44475e-05 0)
(0.0964516 5.42893e-05 0)
(0.0963524 5.40771e-05 0)
(0.0962561 5.38185e-05 0)
(0.0961627 5.35221e-05 0)
(0.0960723 5.31989e-05 0)
(0.0959847 5.28626e-05 0)
(0.0958999 5.25277e-05 0)
(0.0958179 5.22109e-05 0)
(0.0957387 5.19301e-05 0)
(0.095662 5.1706e-05 0)
(0.0955877 5.1561e-05 0)
(0.0955156 5.15217e-05 0)
(0.0954455 5.16164e-05 0)
(0.0953772 5.18784e-05 0)
(0.0953104 5.23463e-05 0)
(0.0952447 5.3063e-05 0)
(0.0951797 5.40778e-05 0)
(0.0951151 5.54477e-05 0)
(0.0950504 5.72395e-05 0)
(0.0949849 5.95306e-05 0)
(0.0949181 6.24098e-05 0)
(0.0948492 6.59812e-05 0)
(0.0947775 7.03667e-05 0)
(0.0947021 7.57089e-05 0)
(0.0946219 8.21764e-05 0)
(0.0945357 8.9969e-05 0)
(0.0944422 9.93251e-05 0)
(0.0943398 0.00011053 0)
(0.0942269 0.000123927 0)
(0.0941012 0.000139933 0)
(0.0939605 0.000159058 0)
(0.0938019 0.000181932 0)
(0.0936222 0.000209337 0)
(0.0934174 0.000242256 0)
(0.0931828 0.000281935 0)
(0.092913 0.000329974 0)
(0.0926009 0.00038845 0)
(0.0922384 0.000460099 0)
(0.0918149 0.000548577 0)
(0.0913176 0.000658844 0)
(0.0907298 0.000797743 0)
(0.0900304 0.000974887 0)
(0.0891919 0.00120403 0)
(0.0881779 0.00150518 0)
(0.0869403 0.00190802 0)
(0.0854151 0.00245721 0)
(0.0835172 0.00322061 0)
(0.0811361 0.0043011 0)
(0.078127 0.00585254 0)
(0.0743292 0.00810029 0)
(0.0697973 0.0113048 0)
(0.0658353 0.0153224 0)
(0.100001 2.89572e-06 0)
(0.0999892 1.51344e-05 0)
(0.0999446 3.60712e-05 0)
(0.099855 6.03539e-05 0)
(0.0997223 8.10747e-05 0)
(0.0995601 9.37592e-05 0)
(0.099386 9.79651e-05 0)
(0.0992139 9.62156e-05 0)
(0.0990513 9.18797e-05 0)
(0.0988998 8.75781e-05 0)
(0.0987575 8.46442e-05 0)
(0.0986215 8.33424e-05 0)
(0.0984892 8.33534e-05 0)
(0.0983589 8.41859e-05 0)
(0.0982298 8.54108e-05 0)
(0.0981015 8.6739e-05 0)
(0.097974 8.80119e-05 0)
(0.0978475 8.91619e-05 0)
(0.0977222 9.0172e-05 0)
(0.0975983 9.10476e-05 0)
(0.097476 9.17998e-05 0)
(0.0973554 9.24366e-05 0)
(0.0972368 9.29621e-05 0)
(0.0971202 9.33769e-05 0)
(0.0970057 9.36802e-05 0)
(0.0968935 9.38703e-05 0)
(0.0967837 9.39467e-05 0)
(0.0966764 9.39105e-05 0)
(0.0965716 9.37662e-05 0)
(0.0964695 9.35208e-05 0)
(0.0963702 9.31852e-05 0)
(0.0962736 9.27723e-05 0)
(0.0961799 9.2298e-05 0)
(0.0960889 9.17815e-05 0)
(0.0960007 9.12454e-05 0)
(0.0959153 9.07154e-05 0)
(0.0958325 9.02194e-05 0)
(0.0957523 8.97889e-05 0)
(0.0956745 8.94594e-05 0)
(0.095599 8.927e-05 0)
(0.0955256 8.9265e-05 0)
(0.095454 8.94939e-05 0)
(0.0953841 9.00145e-05 0)
(0.0953156 9.08919e-05 0)
(0.095248 9.21996e-05 0)
(0.0951811 9.40221e-05 0)
(0.0951143 9.64584e-05 0)
(0.0950473 9.96213e-05 0)
(0.0949794 0.000103643 0)
(0.0949101 0.000108676 0)
(0.0948387 0.000114896 0)
(0.0947643 0.000122512 0)
(0.0946861 0.000131767 0)
(0.0946031 0.000142945 0)
(0.0945141 0.000156387 0)
(0.0944178 0.000172494 0)
(0.0943127 0.000191747 0)
(0.0941972 0.000214725 0)
(0.0940693 0.000242129 0)
(0.0939266 0.000274812 0)
(0.0937666 0.000313822 0)
(0.0935862 0.000360459 0)
(0.0933818 0.000416346 0)
(0.093149 0.000483531 0)
(0.0928829 0.000564623 0)
(0.0925774 0.000662984 0)
(0.0922251 0.000783003 0)
(0.0918172 0.000930468 0)
(0.0913429 0.00111313 0)
(0.0907889 0.00134149 0)
(0.0901391 0.00163001 0)
(0.0893736 0.00199877 0)
(0.088468 0.00247608 0)
(0.0873937 0.00310202 0)
(0.0861176 0.0039334 0)
(0.0846063 0.00504975 0)
(0.0828337 0.006558 0)
(0.0807984 0.00858968 0)
(0.0785659 0.0112756 0)
(0.0764006 0.0146236 0)
(0.0750069 0.0180293 0)
(0.100001 3.93772e-06 0)
(0.0999905 2.13823e-05 0)
(0.0999488 5.13641e-05 0)
(0.0998632 8.63014e-05 0)
(0.0997352 0.00011629 0)
(0.0995773 0.000134844 0)
(0.0994065 0.000141236 0)
(0.0992364 0.000139009 0)
(0.0990747 0.000132964 0)
(0.0989233 0.000126867 0)
(0.0987808 0.000122661 0)
(0.0986446 0.000120757 0)
(0.0985122 0.000120723 0)
(0.0983821 0.000121872 0)
(0.0982533 0.000123594 0)
(0.0981255 0.000125476 0)
(0.0979986 0.000127292 0)
(0.0978727 0.000128941 0)
(0.0977481 0.000130398 0)
(0.0976249 0.000131667 0)
(0.0975032 0.000132764 0)
(0.0973833 0.000133699 0)
(0.0972652 0.000134478 0)
(0.0971491 0.000135101 0)
(0.0970351 0.000135568 0)
(0.0969233 0.000135876 0)
(0.0968138 0.000136025 0)
(0.0967067 0.000136017 0)
(0.0966021 0.000135858 0)
(0.0965 0.00013556 0)
(0.0964006 0.000135138 0)
(0.0963038 0.00013461 0)
(0.0962096 0.000134 0)
(0.0961181 0.000133337 0)
(0.0960293 0.000132653 0)
(0.095943 0.000131984 0)
(0.0958592 0.000131372 0)
(0.0957778 0.000130862 0)
(0.0956987 0.000130505 0)
(0.0956216 0.000130359 0)
(0.0955465 0.000130485 0)
(0.0954731 0.000130958 0)
(0.0954011 0.000131859 0)
(0.0953303 0.000133281 0)
(0.0952603 0.000135332 0)
(0.0951907 0.000138132 0)
(0.0951211 0.000141824 0)
(0.0950511 0.00014657 0)
(0.0949801 0.000152557 0)
(0.0949075 0.000160003 0)
(0.0948326 0.000169162 0)
(0.0947547 0.000180329 0)
(0.0946729 0.000193848 0)
(0.0945862 0.000210124 0)
(0.0944936 0.000229636 0)
(0.0943937 0.000252953 0)
(0.0942853 0.000280748 0)
(0.0941667 0.000313833 0)
(0.094036 0.000353182 0)
(0.0938913 0.000399981 0)
(0.09373 0.000455676 0)
(0.0935495 0.000522048 0)
(0.0933466 0.000601307 0)
(0.0931175 0.000696215 0)
(0.0928579 0.00081026 0)
(0.0925629 0.000947883 0)
(0.0922266 0.00111479 0)
(0.0918422 0.00131841 0)
(0.0914018 0.00156844 0)
(0.0908964 0.00187776 0)
(0.0903158 0.0022635 0)
(0.0896491 0.00274866 0)
(0.0888852 0.00336409 0)
(0.0880147 0.00415094 0)
(0.0870333 0.00516309 0)
(0.0859482 0.00646806 0)
(0.0847891 0.00814262 0)
(0.0836253 0.0102547 0)
(0.0825889 0.0128161 0)
(0.0819016 0.0156673 0)
(0.0818381 0.0182252 0)
(0.100001 4.84891e-06 0)
(0.0999922 2.75077e-05 0)
(0.0999541 6.67276e-05 0)
(0.0998742 0.000112734 0)
(0.0997528 0.000152564 0)
(0.0996011 0.000177594 0)
(0.099435 0.000186685 0)
(0.0992678 0.00018433 0)
(0.0991073 0.000176755 0)
(0.0989562 0.000168911 0)
(0.0988136 0.000163401 0)
(0.0986772 0.000160832 0)
(0.0985448 0.000160689 0)
(0.098415 0.000162102 0)
(0.0982867 0.00016429 0)
(0.0981596 0.000166715 0)
(0.0980336 0.000169074 0)
(0.0979087 0.000171235 0)
(0.097785 0.000173157 0)
(0.0976628 0.000174844 0)
(0.0975422 0.000176313 0)
(0.0974232 0.000177577 0)
(0.0973061 0.000178642 0)
(0.0971908 0.000179508 0)
(0.0970776 0.000180174 0)
(0.0969665 0.000180638 0)
(0.0968575 0.0001809 0)
(0.0967509 0.000180963 0)
(0.0966466 0.000180837 0)
(0.0965448 0.000180537 0)
(0.0964454 0.000180081 0)
(0.0963484 0.000179499 0)
(0.096254 0.000178819 0)
(0.0961621 0.000178081 0)
(0.0960726 0.000177327 0)
(0.0959855 0.000176606 0)
(0.0959006 0.000175972 0)
(0.095818 0.000175487 0)
(0.0957374 0.000175217 0)
(0.0956586 0.000175238 0)
(0.0955816 0.000175634 0)
(0.095506 0.000176501 0)
(0.0954317 0.000177948 0)
(0.0953583 0.000180097 0)
(0.0952854 0.00018309 0)
(0.0952128 0.000187086 0)
(0.09514 0.00019227 0)
(0.0950666 0.000198858 0)
(0.094992 0.000207092 0)
(0.0949156 0.000217259 0)
(0.0948369 0.000229686 0)
(0.094755 0.000244758 0)
(0.0946691 0.00026292 0)
(0.0945784 0.000284696 0)
(0.0944819 0.000310701 0)
(0.0943783 0.000341662 0)
(0.0942664 0.000378438 0)
(0.0941448 0.000422058 0)
(0.0940117 0.000473752 0)
(0.0938655 0.000535003 0)
(0.093704 0.000607609 0)
(0.0935248 0.000693765 0)
(0.0933255 0.000796168 0)
(0.0931028 0.000918149 0)
(0.0928537 0.00106386 0)
(0.0925743 0.00123849 0)
(0.0922605 0.00144862 0)
(0.091908 0.00170256 0)
(0.0915122 0.00201097 0)
(0.0910685 0.00238745 0)
(0.0905729 0.00284951 0)
(0.090023 0.0034195 0)
(0.0894192 0.00412572 0)
(0.0887673 0.00500325 0)
(0.0880824 0.00609368 0)
(0.0873945 0.00744225 0)
(0.086756 0.00908882 0)
(0.0862491 0.0110473 0)
(0.0859894 0.013265 0)
(0.0861098 0.0155552 0)
(0.0866875 0.017511 0)
(0.100001 5.57558e-06 0)
(0.0999941 3.33056e-05 0)
(0.0999605 8.17731e-05 0)
(0.0998877 0.000139126 0)
(0.0997747 0.000189349 0)
(0.099631 0.000221563 0)
(0.0994711 0.000234045 0)
(0.0993078 0.0002321 0)
(0.0991493 0.000223321 0)
(0.0989988 0.000213863 0)
(0.098856 0.000207048 0)
(0.0987195 0.000203742 0)
(0.0985872 0.000203397 0)
(0.0984578 0.000204992 0)
(0.0983303 0.000207584 0)
(0.0982042 0.000210513 0)
(0.0980794 0.000213401 0)
(0.0979558 0.000216073 0)
(0.0978335 0.000218474 0)
(0.0977127 0.000220601 0)
(0.0975935 0.000222469 0)
(0.0974759 0.000224093 0)
(0.09736 0.000225479 0)
(0.0972459 0.000226627 0)
(0.0971338 0.000227536 0)
(0.0970237 0.000228203 0)
(0.0969157 0.000228628 0)
(0.0968098 0.000228818 0)
(0.0967061 0.000228786 0)
(0.0966047 0.000228549 0)
(0.0965056 0.000228135 0)
(0.0964088 0.000227578 0)
(0.0963143 0.000226917 0)
(0.0962221 0.0002262 0)
(0.0961321 0.000225482 0)
(0.0960442 0.000224825 0)
(0.0959584 0.000224295 0)
(0.0958745 0.000223972 0)
(0.0957924 0.000223938 0)
(0.095712 0.000224288 0)
(0.095633 0.00022513 0)
(0.0955552 0.000226583 0)
(0.0954784 0.000228782 0)
(0.0954022 0.000231881 0)
(0.0953264 0.000236055 0)
(0.0952507 0.000241504 0)
(0.0951745 0.000248459 0)
(0.0950975 0.000257184 0)
(0.0950191 0.000267981 0)
(0.0949389 0.0002812 0)
(0.0948561 0.000297247 0)
(0.0947702 0.000316589 0)
(0.0946803 0.00033977 0)
(0.0945857 0.000367424 0)
(0.0944854 0.000400295 0)
(0.0943784 0.000439255 0)
(0.0942635 0.00048533 0)
(0.0941395 0.000539739 0)
(0.0940051 0.000603928 0)
(0.0938587 0.000679627 0)
(0.0936986 0.000768913 0)
(0.0935231 0.000874292 0)
(0.0933301 0.000998801 0)
(0.0931175 0.00114614 0)
(0.0928832 0.00132083 0)
(0.0926248 0.00152843 0)
(0.0923402 0.0017758 0)
(0.0920273 0.00207138 0)
(0.0916849 0.00242563 0)
(0.0913125 0.0028514 0)
(0.0909115 0.00336446 0)
(0.090486 0.00398383 0)
(0.0900445 0.00473196 0)
(0.089602 0.00563424 0)
(0.089183 0.0067172 0)
(0.0888245 0.0080041 0)
(0.0885792 0.00950612 0)
(0.0885157 0.0112065 0)
(0.088712 0.0130363 0)
(0.0892335 0.0148441 0)
(0.0900819 0.0163784 0)
(0.100001 6.05792e-06 0)
(0.0999962 3.85593e-05 0)
(0.0999677 9.6081e-05 0)
(0.0999031 0.000164895 0)
(0.0998001 0.000226023 0)
(0.0996661 0.000266221 0)
(0.0995139 0.000282967 0)
(0.0993556 0.00028217 0)
(0.0991997 0.000272677 0)
(0.0990502 0.000261839 0)
(0.0989077 0.00025376 0)
(0.0987712 0.000249643 0)
(0.0986392 0.000248978 0)
(0.0985104 0.000250639 0)
(0.0983839 0.000253542 0)
(0.0982591 0.000256912 0)
(0.0981358 0.000260292 0)
(0.098014 0.000263463 0)
(0.0978935 0.000266347 0)
(0.0977744 0.00026893 0)
(0.097657 0.000271223 0)
(0.0975411 0.000273241 0)
(0.0974268 0.000274987 0)
(0.0973144 0.000276461 0)
(0.0972037 0.000277661 0)
(0.097095 0.000278585 0)
(0.0969882 0.000279236 0)
(0.0968834 0.000279621 0)
(0.0967807 0.000279757 0)
(0.0966801 0.000279668 0)
(0.0965815 0.000279388 0)
(0.0964851 0.000278958 0)
(0.0963907 0.000278427 0)
(0.0962984 0.000277854 0)
(0.096208 0.000277305 0)
(0.0961196 0.000276854 0)
(0.0960329 0.000276586 0)
(0.0959479 0.000276593 0)
(0.0958645 0.000276978 0)
(0.0957824 0.000277854 0)
(0.0957015 0.000279352 0)
(0.0956216 0.000281615 0)
(0.0955423 0.000284807 0)
(0.0954635 0.000289112 0)
(0.0953849 0.00029474 0)
(0.095306 0.000301932 0)
(0.0952265 0.000310961 0)
(0.095146 0.00032214 0)
(0.095064 0.00033583 0)
(0.09498 0.000352442 0)
(0.0948935 0.000372452 0)
(0.0948038 0.000396407 0)
(0.0947103 0.00042494 0)
(0.0946122 0.000458786 0)
(0.0945087 0.000498798 0)
(0.0943991 0.000545972 0)
(0.0942822 0.000601472 0)
(0.0941572 0.000666665 0)
(0.0940229 0.000743162 0)
(0.0938782 0.000832864 0)
(0.0937218 0.000938029 0)
(0.0935526 0.00106134 0)
(0.0933693 0.00120599 0)
(0.0931707 0.00137582 0)
(0.0929556 0.00157539 0)
(0.0927234 0.0018102 0)
(0.0924735 0.0020868 0)
(0.0922064 0.00241304 0)
(0.0919232 0.0027982 0)
(0.091627 0.00325322 0)
(0.0913228 0.00379074 0)
(0.0910189 0.00442499 0)
(0.0907283 0.00517133 0)
(0.0904693 0.00604512 0)
(0.0902678 0.00705946 0)
(0.0901581 0.00822117 0)
(0.0901829 0.00952431 0)
(0.0903902 0.0109407 0)
(0.0908254 0.0124081 0)
(0.0915147 0.0138204 0)
(0.0924382 0.0150303 0)
(0.100002 6.24047e-06 0)
(0.0999984 4.30641e-05 0)
(0.0999753 0.000109246 0)
(0.0999197 0.00018946 0)
(0.0998278 0.000261933 0)
(0.0997048 0.000310982 0)
(0.0995615 0.000333027 0)
(0.0994093 0.000334306 0)
(0.0992569 0.000324756 0)
(0.099109 0.000312887 0)
(0.0989672 0.000303638 0)
(0.0988311 0.000298649 0)
(0.0986997 0.000297532 0)
(0.0985719 0.000299113 0)
(0.0984467 0.000302205 0)
(0.0983236 0.000305926 0)
(0.0982022 0.000309744 0)
(0.0980823 0.000313388 0)
(0.097964 0.000316749 0)
(0.0978471 0.0003198 0)
(0.0977318 0.000322544 0)
(0.097618 0.000324989 0)
(0.0975058 0.000327136 0)
(0.0973953 0.000328985 0)
(0.0972865 0.000330533 0)
(0.0971794 0.000331779 0)
(0.0970742 0.000332727 0)
(0.0969709 0.000333388 0)
(0.0968694 0.000333783 0)
(0.0967698 0.000333942 0)
(0.0966721 0.000333906 0)
(0.0965763 0.000333725 0)
(0.0964823 0.000333458 0)
(0.0963901 0.000333175 0)
(0.0962996 0.000332953 0)
(0.0962108 0.000332882 0)
(0.0961234 0.00033306 0)
(0.0960375 0.000333595 0)
(0.0959529 0.00033461 0)
(0.0958694 0.000336239 0)
(0.0957867 0.000338632 0)
(0.0957048 0.00034196 0)
(0.0956233 0.000346413 0)
(0.095542 0.000352205 0)
(0.0954607 0.000359582 0)
(0.0953789 0.000368822 0)
(0.0952963 0.000380238 0)
(0.0952126 0.000394194 0)
(0.0951273 0.000411098 0)
(0.09504 0.000431423 0)
(0.0949502 0.000455704 0)
(0.0948573 0.000484559 0)
(0.0947609 0.000518696 0)
(0.0946602 0.000558932 0)
(0.0945546 0.000606207 0)
(0.0944434 0.00066161 0)
(0.094326 0.0007264 0)
(0.0942015 0.000802042 0)
(0.0940693 0.000890239 0)
(0.0939285 0.000992975 0)
(0.0937785 0.00111257 0)
(0.0936186 0.00125173 0)
(0.0934483 0.00141362 0)
(0.0932673 0.00160195 0)
(0.0930756 0.00182102 0)
(0.0928737 0.00207584 0)
(0.0926627 0.00237221 0)
(0.0924447 0.00271677 0)
(0.092223 0.00311701 0)
(0.0920026 0.00358125 0)
(0.0917908 0.00411844 0)
(0.0915978 0.00473776 0)
(0.0914372 0.00544793 0)
(0.0913272 0.00625592 0)
(0.0912902 0.00716508 0)
(0.0913534 0.00817224 0)
(0.091547 0.00926384 0)
(0.0919009 0.0104112 0)
(0.0924386 0.0115662 0)
(0.0931672 0.0126596 0)
(0.0940651 0.013607 0)
(0.100002 6.08289e-06 0)
(0.100001 4.66559e-05 0)
(0.0999829 0.000120922 0)
(0.0999365 0.000212301 0)
(0.0998562 0.000296466 0)
(0.0997449 0.000355252 0)
(0.0996116 0.000383744 0)
(0.0994666 0.000388192 0)
(0.0993186 0.000379397 0)
(0.0991732 0.00036696 0)
(0.0990327 0.000356708 0)
(0.0988975 0.000350813 0)
(0.0987672 0.000349109 0)
(0.0986407 0.000350451 0)
(0.0985172 0.000353587 0)
(0.098396 0.000357551 0)
(0.0982769 0.000361735 0)
(0.0981594 0.000365812 0)
(0.0980435 0.000369639 0)
(0.0979292 0.000373165 0)
(0.0978163 0.000376382 0)
(0.0977049 0.000379287 0)
(0.0975951 0.000381881 0)
(0.0974869 0.000384159 0)
(0.0973802 0.000386118 0)
(0.0972752 0.000387759 0)
(0.0971719 0.000389087 0)
(0.0970702 0.000390118 0)
(0.0969703 0.000390878 0)
(0.096872 0.000391403 0)
(0.0967754 0.000391742 0)
(0.0966804 0.000391953 0)
(0.096587 0.000392107 0)
(0.0964952 0.000392283 0)
(0.0964048 0.000392572 0)
(0.0963158 0.000393077 0)
(0.096228 0.000393911 0)
(0.0961414 0.0003952 0)
(0.0960558 0.000397082 0)
(0.095971 0.000399713 0)
(0.0958868 0.000403266 0)
(0.0958031 0.000407933 0)
(0.0957197 0.000413932 0)
(0.0956362 0.000421508 0)
(0.0955524 0.000430935 0)
(0.095468 0.000442528 0)
(0.0953828 0.00045664 0)
(0.0952964 0.000473674 0)
(0.0952083 0.000494085 0)
(0.0951183 0.000518391 0)
(0.0950259 0.000547183 0)
(0.0949307 0.00058113 0)
(0.0948322 0.000620999 0)
(0.0947299 0.000667662 0)
(0.0946234 0.000722116 0)
(0.0945122 0.000785503 0)
(0.0943959 0.000859129 0)
(0.0942738 0.000944491 0)
(0.0941458 0.00104331 0)
(0.0940113 0.00115754 0)
(0.0938703 0.00128945 0)
(0.0937226 0.00144161 0)
(0.0935684 0.00161696 0)
(0.0934082 0.00181885 0)
(0.093243 0.00205105 0)
(0.0930742 0.0023178 0)
(0.0929041 0.00262376 0)
(0.0927359 0.00297405 0)
(0.0925741 0.00337407 0)
(0.0924248 0.00382939 0)
(0.0922958 0.00434539 0)
(0.0921973 0.00492682 0)
(0.0921418 0.00557711 0)
(0.0921445 0.00629732 0)
(0.0922228 0.00708486 0)
(0.0923961 0.00793179 0)
(0.0926835 0.00882287 0)
(0.093102 0.0097338 0)
(0.093662 0.0106301 0)
(0.0943627 0.0114683 0)
(0.0951866 0.0122002 0)
(0.100002 5.56565e-06 0)
(0.100002 4.92348e-05 0)
(0.0999899 0.000130875 0)
(0.0999524 0.000233028 0)
(0.0998836 0.000329115 0)
(0.0997844 0.000398484 0)
(0.0996616 0.000434623 0)
(0.0995246 0.000443435 0)
(0.0993821 0.000436331 0)
(0.0992401 0.000423901 0)
(0.0991017 0.000412891 0)
(0.0989682 0.000406102 0)
(0.0988395 0.000403699 0)
(0.0987147 0.000404644 0)
(0.0985933 0.000407674 0)
(0.0984745 0.00041176 0)
(0.0983579 0.000416225 0)
(0.0982431 0.000420688 0)
(0.09813 0.000424961 0)
(0.0980184 0.000428967 0)
(0.0979083 0.000432677 0)
(0.0977997 0.000436081 0)
(0.0976925 0.00043917 0)
(0.0975868 0.000441938 0)
(0.0974826 0.000444381 0)
(0.0973798 0.0004465 0)
(0.0972786 0.000448305 0)
(0.0971789 0.000449815 0)
(0.0970806 0.000451061 0)
(0.0969839 0.000452088 0)
(0.0968886 0.000452951 0)
(0.0967946 0.000453719 0)
(0.0967021 0.00045447 0)
(0.0966108 0.000455298 0)
(0.0965207 0.000456304 0)
(0.0964317 0.000457605 0)
(0.0963437 0.000459328 0)
(0.0962565 0.000461616 0)
(0.0961701 0.000464623 0)
(0.0960843 0.000468526 0)
(0.0959989 0.000473516 0)
(0.0959137 0.000479809 0)
(0.0958286 0.000487647 0)
(0.0957432 0.0004973 0)
(0.0956574 0.000509074 0)
(0.095571 0.00052331 0)
(0.0954836 0.000540397 0)
(0.095395 0.000560769 0)
(0.0953048 0.000584918 0)
(0.0952128 0.000613399 0)
(0.0951187 0.000646836 0)
(0.095022 0.000685937 0)
(0.0949226 0.000731497 0)
(0.0948201 0.000784419 0)
(0.0947141 0.000845718 0)
(0.0946045 0.000916543 0)
(0.094491 0.000998189 0)
(0.0943733 0.00109212 0)
(0.0942516 0.00119997 0)
(0.0941258 0.00132361 0)
(0.0939961 0.00146509 0)
(0.0938631 0.00162672 0)
(0.0937275 0.00181106 0)
(0.0935904 0.00202092 0)
(0.0934534 0.00225935 0)
(0.0933187 0.0025296 0)
(0.0931893 0.00283511 0)
(0.0930689 0.00317932 0)
(0.0929625 0.00356563 0)
(0.0928761 0.00399708 0)
(0.0928172 0.00447609 0)
(0.0927946 0.00500404 0)
(0.0928186 0.00558071 0)
(0.0929008 0.00620364 0)
(0.0930535 0.00686733 0)
(0.0932891 0.00756249 0)
(0.093619 0.00827525 0)
(0.0940514 0.00898675 0)
(0.0945901 0.00967339 0)
(0.0952311 0.0103081 0)
(0.0959617 0.0108633 0)
(0.100002 4.69548e-06 0)
(0.100004 5.07815e-05 0)
(0.099996 0.000139011 0)
(0.0999666 0.000251428 0)
(0.0999085 0.000359534 0)
(0.099821 0.000440238 0)
(0.0997091 0.000485185 0)
(0.0995808 0.00049959 0)
(0.0994447 0.000495188 0)
(0.0993071 0.000483434 0)
(0.0991718 0.000471997 0)
(0.0990408 0.000464394 0)
(0.0989142 0.000461221 0)
(0.0987918 0.000461635 0)
(0.0986728 0.000464416 0)
(0.0985567 0.000468505 0)
(0.0984429 0.000473167 0)
(0.0983311 0.000477963 0)
(0.098221 0.00048266 0)
(0.0981124 0.000487148 0)
(0.0980053 0.000491376 0)
(0.0978996 0.000495318 0)
(0.0977953 0.000498957 0)
(0.0976923 0.000502285 0)
(0.0975907 0.000505294 0)
(0.0974904 0.000507989 0)
(0.0973914 0.00051038 0)
(0.0972938 0.000512493 0)
(0.0971974 0.000514365 0)
(0.0971024 0.000516048 0)
(0.0970085 0.000517604 0)
(0.0969157 0.000519111 0)
(0.0968241 0.000520659 0)
(0.0967335 0.000522351 0)
(0.0966439 0.000524301 0)
(0.0965551 0.000526637 0)
(0.096467 0.0005295 0)
(0.0963795 0.000533048 0)
(0.0962926 0.000537452 0)
(0.096206 0.000542905 0)
(0.0961196 0.000549616 0)
(0.0960332 0.000557822 0)
(0.0959467 0.000567785 0)
(0.0958599 0.000579799 0)
(0.0957726 0.000594189 0)
(0.0956845 0.000611324 0)
(0.0955956 0.000631615 0)
(0.0955054 0.00065552 0)
(0.0954139 0.000683554 0)
(0.0953208 0.000716291 0)
(0.0952259 0.000754375 0)
(0.0951289 0.000798523 0)
(0.0950298 0.000849537 0)
(0.0949283 0.00090831 0)
(0.0948244 0.000975838 0)
(0.0947179 0.00105323 0)
(0.094609 0.0011417 0)
(0.0944977 0.00124262 0)
(0.0943842 0.00135748 0)
(0.094269 0.00148791 0)
(0.0941528 0.00163571 0)
(0.0940363 0.0018028 0)
(0.0939208 0.00199123 0)
(0.0938078 0.00220317 0)
(0.0936994 0.00244086 0)
(0.0935981 0.00270654 0)
(0.0935071 0.00300237 0)
(0.0934302 0.00333032 0)
(0.0933723 0.00369201 0)
(0.0933387 0.00408847 0)
(0.0933357 0.00451996 0)
(0.0933705 0.00498559 0)
(0.0934508 0.00548303 0)
(0.0935847 0.00600811 0)
(0.0937801 0.00655451 0)
(0.0940445 0.00711341 0)
(0.0943837 0.00767342 0)
(0.0948012 0.00822065 0)
(0.0952971 0.00873925 0)
(0.0958669 0.00921241 0)
(0.0965015 0.00962397 0)
(0.100002 3.50389e-06 0)
(0.100005 5.13554e-05 0)
(0.100001 0.000145383 0)
(0.0999783 0.000267479 0)
(0.09993 0.000387568 0)
(0.0998534 0.000480208 0)
(0.099752 0.000535015 0)
(0.099633 0.000556194 0)
(0.099504 0.000555528 0)
(0.0993718 0.000545183 0)
(0.0992406 0.000533734 0)
(0.0991128 0.000525474 0)
(0.0989892 0.000521524 0)
(0.0988696 0.000521317 0)
(0.0987535 0.000523735 0)
(0.0986404 0.000527723 0)
(0.0985297 0.000532502 0)
(0.098421 0.000537583 0)
(0.098314 0.000542685 0)
(0.0982087 0.000547662 0)
(0.0981047 0.000552434 0)
(0.0980021 0.00055696 0)
(0.0979007 0.000561214 0)
(0.0978006 0.000565179 0)
(0.0977017 0.00056885 0)
(0.097604 0.00057223 0)
(0.0975074 0.000575334 0)
(0.097412 0.000578192 0)
(0.0973176 0.000580847 0)
(0.0972243 0.000583357 0)
(0.0971319 0.000585794 0)
(0.0970405 0.000588244 0)
(0.0969499 0.000590806 0)
(0.0968601 0.000593592 0)
(0.096771 0.000596728 0)
(0.0966826 0.000600352 0)
(0.0965946 0.00060462 0)
(0.096507 0.000609699 0)
(0.0964197 0.000615777 0)
(0.0963326 0.000623059 0)
(0.0962455 0.000631772 0)
(0.0961583 0.000642166 0)
(0.0960709 0.000654521 0)
(0.095983 0.000669145 0)
(0.0958946 0.000686383 0)
(0.0958056 0.000706616 0)
(0.0957156 0.000730269 0)
(0.0956247 0.000757812 0)
(0.0955327 0.000789765 0)
(0.0954394 0.000826707 0)
(0.0953447 0.000869276 0)
(0.0952486 0.000918175 0)
(0.095151 0.000974178 0)
(0.0950519 0.00103814 0)
(0.0949514 0.00111098 0)
(0.0948497 0.00119373 0)
(0.0947469 0.00128749 0)
(0.0946435 0.00139344 0)
(0.09454 0.00151287 0)
(0.094437 0.00164713 0)
(0.0943355 0.00179766 0)
(0.0942366 0.00196592 0)
(0.0941417 0.00215344 0)
(0.0940528 0.00236169 0)
(0.0939719 0.0025921 0)
(0.0939017 0.00284596 0)
(0.0938452 0.00312433 0)
(0.0938061 0.00342794 0)
(0.0937884 0.00375703 0)
(0.0937967 0.00411124 0)
(0.0938359 0.00448939 0)
(0.0939113 0.00488936 0)
(0.0940282 0.00530782 0)
(0.094192 0.00574016 0)
(0.0944073 0.00618035 0)
(0.094678 0.0066209 0)
(0.0950067 0.00705298 0)
(0.0953943 0.00746665 0)
(0.0958391 0.00785135 0)
(0.0963372 0.00819655 0)
(0.0968818 0.00849261 0)
(0.100002 2.03921e-06 0)
(0.100006 5.10785e-05 0)
(0.100004 0.000150163 0)
(0.0999875 0.000281329 0)
(0.0999474 0.000413247 0)
(0.0998807 0.000518246 0)
(0.0997894 0.000583791 0)
(0.0996795 0.000612811 0)
(0.0995583 0.000616877 0)
(0.0994323 0.000608704 0)
(0.0993061 0.000597727 0)
(0.0991825 0.000589053 0)
(0.0990624 0.000584394 0)
(0.0989461 0.000583537 0)
(0.0988333 0.000585521 0)
(0.0987234 0.000589332 0)
(0.098616 0.000594168 0)
(0.0985107 0.000599497 0)
(0.0984071 0.000604992 0)
(0.098305 0.000610469 0)
(0.0982043 0.000615821 0)
(0.0981048 0.000620986 0)
(0.0980065 0.000625928 0)
(0.0979093 0.000630623 0)
(0.0978132 0.000635064 0)
(0.0977181 0.000639254 0)
(0.0976239 0.000643213 0)
(0.0975307 0.000646974 0)
(0.0974384 0.000650587 0)
(0.0973469 0.000654115 0)
(0.0972561 0.000657639 0)
(0.097166 0.000661251 0)
(0.0970766 0.000665059 0)
(0.0969877 0.000669184 0)
(0.0968993 0.00067376 0)
(0.0968113 0.000678937 0)
(0.0967236 0.000684877 0)
(0.0966361 0.000691762 0)
(0.0965487 0.000699786 0)
(0.0964613 0.000709168 0)
(0.0963738 0.000720144 0)
(0.0962861 0.000732976 0)
(0.0961981 0.000747954 0)
(0.0961098 0.000765395 0)
(0.0960209 0.000785649 0)
(0.0959314 0.000809104 0)
(0.0958412 0.000836184 0)
(0.0957503 0.000867357 0)
(0.0956586 0.000903132 0)
(0.095566 0.000944071 0)
(0.0954727 0.000990782 0)
(0.0953785 0.00104393 0)
(0.0952836 0.00110422 0)
(0.0951883 0.00117245 0)
(0.0950926 0.00124942 0)
(0.0949969 0.00133604 0)
(0.0949017 0.00143322 0)
(0.0948075 0.00154195 0)
(0.0947151 0.00166325 0)
(0.0946252 0.00179815 0)
(0.0945391 0.00194769 0)
(0.094458 0.00211288 0)
(0.0943834 0.00229467 0)
(0.0943173 0.00249392 0)
(0.0942617 0.00271133 0)
(0.0942191 0.00294737 0)
(0.0941922 0.00320223 0)
(0.0941842 0.00347569 0)
(0.0941982 0.0037671 0)
(0.0942378 0.0040752 0)
(0.0943067 0.00439806 0)
(0.0944084 0.00473302 0)
(0.0945465 0.00507655 0)
(0.0947239 0.0054243 0)
(0.0949433 0.00577106 0)
(0.0952064 0.00611084 0)
(0.0955138 0.00643706 0)
(0.0958649 0.00674273 0)
(0.0962579 0.00702083 0)
(0.0966892 0.00726466 0)
(0.0971537 0.00746833 0)
(0.100002 3.5712e-07 0)
(0.100006 5.01083e-05 0)
(0.100007 0.000153604 0)
(0.0999942 0.000293252 0)
(0.0999608 0.00043675 0)
(0.0999027 0.000554347 0)
(0.0998208 0.000631302 0)
(0.0997199 0.000669067 0)
(0.0996068 0.000678776 0)
(0.0994876 0.000673532 0)
(0.0993671 0.000663561 0)
(0.0992483 0.000654789 0)
(0.0991324 0.000649572 0)
(0.09902 0.000648104 0)
(0.0989108 0.000649639 0)
(0.0988044 0.000653234 0)
(0.0987005 0.000658095 0)
(0.0985986 0.000663653 0)
(0.0984984 0.000669544 0)
(0.0983997 0.000675544 0)
(0.0983022 0.000681521 0)
(0.098206 0.000687392 0)
(0.0981107 0.000693107 0)
(0.0980165 0.000698637 0)
(0.0979232 0.000703971 0)
(0.0978307 0.000709114 0)
(0.097739 0.000714086 0)
(0.097648 0.000718926 0)
(0.0975577 0.000723687 0)
(0.097468 0.000728441 0)
(0.0973789 0.000733271 0)
(0.0972903 0.000738279 0)
(0.097202 0.000743577 0)
(0.0971141 0.000749294 0)
(0.0970265 0.000755572 0)
(0.0969391 0.000762565 0)
(0.0968518 0.000770445 0)
(0.0967646 0.000779399 0)
(0.0966774 0.000789629 0)
(0.09659 0.000801358 0)
(0.0965025 0.00081483 0)
(0.0964148 0.000830311 0)
(0.0963267 0.00084809 0)
(0.0962383 0.000868488 0)
(0.0961496 0.00089185 0)
(0.0960603 0.000918557 0)
(0.0959707 0.000949019 0)
(0.0958806 0.000983684 0)
(0.0957901 0.00102303 0)
(0.0956992 0.00106759 0)
(0.0956082 0.00111791 0)
(0.095517 0.00117459 0)
(0.0954261 0.00123827 0)
(0.0953355 0.00130959 0)
(0.0952458 0.00138927 0)
(0.0951573 0.00147801 0)
(0.0950707 0.00157655 0)
(0.0949866 0.00168563 0)
(0.0949059 0.00180598 0)
(0.0948296 0.00193829 0)
(0.0947587 0.00208323 0)
(0.0946948 0.00224134 0)
(0.0946392 0.0024131 0)
(0.0945938 0.0025988 0)
(0.0945605 0.00279855 0)
(0.0945413 0.0030122 0)
(0.0945386 0.00323931 0)
(0.0945548 0.00347906 0)
(0.0945924 0.00373023 0)
(0.0946539 0.00399112 0)
(0.0947418 0.00425955 0)
(0.0948585 0.00453278 0)
(0.0950059 0.00480753 0)
(0.0951857 0.00508003 0)
(0.0953991 0.00534604 0)
(0.0956463 0.00560097 0)
(0.0959273 0.00584002 0)
(0.0962407 0.00605834 0)
(0.0965847 0.00625123 0)
(0.0969562 0.00641439 0)
(0.0973517 0.00654411 0)
(0.100002 -1.48858e-06 0)
(0.100006 4.86103e-05 0)
(0.100008 0.000155988 0)
(0.0999988 0.000303585 0)
(0.0999708 0.000458351 0)
(0.0999199 0.000588623 0)
(0.0998464 0.000677448 0)
(0.0997541 0.000724674 0)
(0.0996491 0.000740817 0)
(0.0995372 0.000739219 0)