/*--------------------------------*- C++ -*----------------------------------*\
| =========                 |                                                 |
| \\      /  F ield         | OpenFOAM: The Open Source CFD Toolbox           |
|  \\    /   O peration     | Version:  4.1                                   |
|   \\  /    A nd           | Web:      www.OpenFOAM.org                      |
|    \\/     M anipulation  |                                                 |
\*---------------------------------------------------------------------------*/
FoamFile
{
    version     2.0;
    format      ascii;
    class       volVectorField;
    location    "0.2";
    object      U;
}
// * * * * * * * * * * * * * * * * * * * * * * * * * * * * * * * * * * * * * //

dimensions      [0 1 -1 0 0 0 0];

internalField   nonuniform List<vector> 
12013
(
(0.0999331 2.03637e-05 0)
(0.0996276 3.36663e-05 0)
(0.0992508 3.14284e-05 0)
(0.0989796 2.20629e-05 0)
(0.0988072 1.52312e-05 0)
(0.098679 1.29535e-05 0)
(0.0985567 1.34388e-05 0)
(0.0984249 1.48489e-05 0)
(0.0982819 1.62654e-05 0)
(0.0981301 1.7433e-05 0)
(0.0979723 1.8371e-05 0)
(0.0978104 1.91633e-05 0)
(0.0976455 1.98807e-05 0)
(0.0974781 2.05692e-05 0)
(0.0973086 2.12537e-05 0)
(0.097137 2.1948e-05 0)
(0.0969633 2.26574e-05 0)
(0.0967877 2.3385e-05 0)
(0.09661 2.41312e-05 0)
(0.0964304 2.48938e-05 0)
(0.0962489 2.56689e-05 0)
(0.0960655 2.64502e-05 0)
(0.0958804 2.72298e-05 0)
(0.0956938 2.80008e-05 0)
(0.0955059 2.87554e-05 0)
(0.095317 2.94874e-05 0)
(0.0951274 3.01909e-05 0)
(0.0949374 3.08624e-05 0)
(0.0947472 3.14981e-05 0)
(0.0945574 3.20975e-05 0)
(0.094368 3.26618e-05 0)
(0.0941795 3.31941e-05 0)
(0.0939921 3.36988e-05 0)
(0.0938059 3.41813e-05 0)
(0.0936212 3.46485e-05 0)
(0.093438 3.51087e-05 0)
(0.0932565 3.55693e-05 0)
(0.0930767 3.60386e-05 0)
(0.0928985 3.65248e-05 0)
(0.0927219 3.70364e-05 0)
(0.0925469 3.75811e-05 0)
(0.0923734 3.81668e-05 0)
(0.0922011 3.88013e-05 0)
(0.09203 3.94912e-05 0)
(0.0918598 4.02428e-05 0)
(0.0916904 4.10613e-05 0)
(0.0915216 4.19523e-05 0)
(0.0913532 4.29221e-05 0)
(0.0911849 4.3976e-05 0)
(0.0910165 4.51217e-05 0)
(0.0908478 4.63683e-05 0)
(0.0906785 4.7728e-05 0)
(0.0905083 4.92169e-05 0)
(0.0903369 5.08559e-05 0)
(0.0901638 5.26743e-05 0)
(0.0899885 5.47108e-05 0)
(0.0898104 5.70162e-05 0)
(0.0896287 5.96556e-05 0)
(0.0894425 6.27148e-05 0)
(0.0892505 6.63038e-05 0)
(0.0890511 7.05643e-05 0)
(0.0888425 7.56809e-05 0)
(0.0886222 8.18934e-05 0)
(0.0883871 8.95185e-05 0)
(0.0881333 9.8975e-05 0)
(0.0878556 0.000110825 0)
(0.0875475 0.000125837 0)
(0.0872005 0.000145065 0)
(0.0868033 0.000169996 0)
(0.0863409 0.000202757 0)
(0.0857926 0.000246451 0)
(0.0851303 0.000305701 0)
(0.0843139 0.000387547 0)
(0.0832861 0.00050292 0)
(0.0819628 0.000669147 0)
(0.0802195 0.000914187 0)
(0.0778668 0.00128395 0)
(0.0746004 0.0018572 0)
(0.0699416 0.00279159 0)
(0.0633128 0.00452232 0)
(0.0557605 0.00899405 0)
(0.0999393 6.18241e-05 0)
(0.0996411 0.000102777 0)
(0.0992697 9.62684e-05 0)
(0.0989987 6.78215e-05 0)
(0.098824 4.69697e-05 0)
(0.0986933 3.99632e-05 0)
(0.0985691 4.13883e-05 0)
(0.0984363 4.56516e-05 0)
(0.0982928 4.99531e-05 0)
(0.098141 5.35068e-05 0)
(0.0979835 5.63682e-05 0)
(0.097822 5.8788e-05 0)
(0.0976575 6.09824e-05 0)
(0.0974906 6.30898e-05 0)
(0.0973216 6.51866e-05 0)
(0.0971506 6.73123e-05 0)
(0.0969776 6.94851e-05 0)
(0.0968025 7.17136e-05 0)
(0.0966256 7.39995e-05 0)
(0.0964466 7.63354e-05 0)
(0.0962658 7.87096e-05 0)
(0.0960832 8.1103e-05 0)
(0.0958989 8.34924e-05 0)
(0.095713 8.58546e-05 0)
(0.0955259 8.81675e-05 0)
(0.0953378 9.04119e-05 0)
(0.095149 9.25707e-05 0)
(0.0949598 9.4631e-05 0)
(0.0947704 9.65828e-05 0)
(0.0945813 9.84234e-05 0)
(0.0943927 0.000100158 0)
(0.0942048 0.000101795 0)
(0.0940181 0.000103349 0)
(0.0938325 0.000104834 0)
(0.0936484 0.000106273 0)
(0.0934657 0.000107689 0)
(0.0932847 0.000109109 0)
(0.0931053 0.000110556 0)
(0.0929275 0.000112054 0)
(0.0927514 0.00011363 0)
(0.0925767 0.000115307 0)
(0.0924034 0.000117111 0)
(0.0922314 0.000119063 0)
(0.0920605 0.000121185 0)
(0.0918906 0.000123496 0)
(0.0917214 0.000126013 0)
(0.0915528 0.000128751 0)
(0.0913845 0.000131729 0)
(0.0912164 0.000134964 0)
(0.0910482 0.000138482 0)
(0.0908796 0.000142308 0)
(0.0907105 0.000146479 0)
(0.0905405 0.000151044 0)
(0.0903693 0.000156068 0)
(0.0901965 0.000161639 0)
(0.0900215 0.000167874 0)
(0.0898439 0.000174928 0)
(0.0896627 0.000182999 0)
(0.0894771 0.000192346 0)
(0.089286 0.000203299 0)
(0.0890877 0.000216289 0)
(0.0888806 0.00023187 0)
(0.0886622 0.000250764 0)
(0.0884297 0.000273915 0)
(0.0881794 0.000302577 0)
(0.0879065 0.000338421 0)
(0.0876051 0.000383711 0)
(0.0872674 0.000441554 0)
(0.0868834 0.000516285 0)
(0.08644 0.000614048 0)
(0.0859196 0.000743719 0)
(0.0852988 0.000918343 0)
(0.084546 0.00115744 0)
(0.0836177 0.00149067 0)
(0.0824542 0.00196371 0)
(0.0809747 0.00264723 0)
(0.0790709 0.00364983 0)
(0.0765969 0.00513524 0)
(0.0733874 0.00734387 0)
(0.0694878 0.0105556 0)
(0.0662015 0.0146483 0)
(0.0999471 0.000103397 0)
(0.0996679 0.000174272 0)
(0.0993104 0.000164613 0)
(0.0990405 0.000117165 0)
(0.0988604 8.18594e-05 0)
(0.0987236 6.97102e-05 0)
(0.0985952 7.18431e-05 0)
(0.0984602 7.88787e-05 0)
(0.098316 8.60707e-05 0)
(0.0981643 9.2057e-05 0)
(0.0980073 9.6905e-05 0)
(0.0978465 0.000101023 0)
(0.097683 0.000104769 0)
(0.0975172 0.000108372 0)
(0.0973494 0.00011196 0)
(0.0971796 0.000115598 0)
(0.0970078 0.000119318 0)
(0.0968342 0.000123134 0)
(0.0966586 0.000127047 0)
(0.0964811 0.000131047 0)
(0.0963019 0.000135113 0)
(0.0961208 0.000139212 0)
(0.0959381 0.000143307 0)
(0.095754 0.000147357 0)
(0.0955686 0.000151324 0)
(0.0953822 0.000155177 0)
(0.0951951 0.000158886 0)
(0.0950076 0.000162429 0)
(0.0948199 0.00016579 0)
(0.0946324 0.000168964 0)
(0.0944454 0.000171959 0)
(0.094259 0.00017479 0)
(0.0940737 0.000177479 0)
(0.0938895 0.000180054 0)
(0.0937066 0.000182552 0)
(0.0935252 0.000185013 0)
(0.0933453 0.000187479 0)
(0.0931669 0.000189992 0)
(0.0929901 0.000192594 0)
(0.0928148 0.000195329 0)
(0.0926409 0.000198238 0)
(0.0924683 0.000201363 0)
(0.092297 0.000204741 0)
(0.0921267 0.000208409 0)
(0.0919573 0.000212398 0)
(0.0917887 0.000216738 0)
(0.0916206 0.000221456 0)
(0.0914529 0.000226582 0)
(0.0912853 0.000232148 0)
(0.0911177 0.000238192 0)
(0.0909498 0.000244762 0)
(0.0907814 0.000251917 0)
(0.0906121 0.000259741 0)
(0.0904417 0.000268344 0)
(0.0902698 0.000277875 0)
(0.090096 0.000288529 0)
(0.0899195 0.000300565 0)
(0.0897399 0.000314317 0)
(0.0895561 0.000330214 0)
(0.089367 0.000348808 0)
(0.0891715 0.000370812 0)
(0.0889677 0.000397138 0)
(0.0887535 0.000428972 0)
(0.0885264 0.000467857 0)
(0.0882831 0.000515817 0)
(0.0880196 0.000575537 0)
(0.0877308 0.00065061 0)
(0.0874103 0.00074591 0)
(0.0870501 0.000868125 0)
(0.0866401 0.00102657 0)
(0.0861676 0.00123438 0)
(0.0856167 0.00151036 0)
(0.0849676 0.00188166 0)
(0.0841964 0.0023878 0)
(0.0832756 0.00308624 0)
(0.0821775 0.00405933 0)
(0.0808821 0.00542029 0)
(0.0793939 0.00731166 0)
(0.0777853 0.00988051 0)
(0.0763284 0.0131543 0)
(0.0757372 0.016544 0)
(0.0999565 0.000143031 0)
(0.0997069 0.000245961 0)
(0.0993715 0.000235499 0)
(0.0991041 0.000170583 0)
(0.0989162 0.000120953 0)
(0.0987704 0.000103152 0)
(0.0986356 0.00010546 0)
(0.0984973 0.000114922 0)
(0.0983519 0.000124837 0)
(0.0982004 0.000133203 0)
(0.0980442 0.000140049 0)
(0.0978848 0.000145907 0)
(0.0977228 0.00015126 0)
(0.0975587 0.000156421 0)
(0.0973926 0.000161567 0)
(0.0972247 0.000166789 0)
(0.097055 0.000172129 0)
(0.0968834 0.000177608 0)
(0.0967101 0.000183225 0)
(0.0965349 0.000188968 0)
(0.0963581 0.000194806 0)
(0.0961795 0.000200695 0)
(0.0959994 0.000206581 0)
(0.0958179 0.000212406 0)
(0.0956351 0.000218119 0)
(0.0954514 0.000223673 0)
(0.095267 0.000229026 0)
(0.0950822 0.000234148 0)
(0.0948971 0.000239018 0)
(0.0947122 0.000243626 0)
(0.0945277 0.000247983 0)
(0.0943438 0.000252111 0)
(0.0941607 0.000256039 0)
(0.0939787 0.00025981 0)
(0.0937979 0.000263474 0)
(0.0936183 0.000267086 0)
(0.0934402 0.000270708 0)
(0.0932635 0.000274397 0)
(0.0930882 0.000278216 0)
(0.0929143 0.000282224 0)
(0.0927417 0.00028648 0)
(0.0925704 0.000291044 0)
(0.0924002 0.000295968 0)
(0.0922311 0.000301303 0)
(0.0920628 0.000307096 0)
(0.0918952 0.000313385 0)
(0.0917282 0.000320211 0)
(0.0915615 0.000327615 0)
(0.0913951 0.000335644 0)
(0.0912287 0.00034435 0)
(0.0910621 0.000353799 0)
(0.0908951 0.000364076 0)
(0.0907274 0.0003753 0)
(0.0905587 0.000387622 0)
(0.0903888 0.000401253 0)
(0.0902171 0.000416465 0)
(0.0900433 0.000433617 0)
(0.0898665 0.000453172 0)
(0.0896862 0.000475722 0)
(0.0895012 0.000502028 0)
(0.0893106 0.000533059 0)
(0.0891127 0.000570057 0)
(0.0889059 0.000614616 0)
(0.088688 0.000668796 0)
(0.0884565 0.000735269 0)
(0.0882081 0.000817532 0)
(0.087939 0.000920196 0)
(0.0876447 0.0010494 0)
(0.0873199 0.00121338 0)
(0.0869582 0.00142331 0)
(0.0865527 0.00169446 0)
(0.0860959 0.00204781 0)
(0.0855809 0.00251225 0)
(0.0850029 0.00312742 0)
(0.084363 0.00394668 0)
(0.0836751 0.00503901 0)
(0.0829767 0.00648575 0)
(0.0823466 0.0083637 0)
(0.081929 0.010698 0)
(0.0819598 0.0133454 0)
(0.0827264 0.0157367 0)
(0.0999669 0.000178899 0)
(0.0997544 0.000315344 0)
(0.0994482 0.000307758 0)
(0.0991855 0.000228408 0)
(0.0989887 0.000165259 0)
(0.098832 0.000141263 0)
(0.0986893 0.000142927 0)
(0.0985469 0.000154192 0)
(0.0984001 0.000166471 0)
(0.0982489 0.000177054 0)
(0.0980939 0.000185844 0)
(0.0979362 0.000193446 0)
(0.0977763 0.000200438 0)
(0.0976144 0.000207204 0)
(0.0974508 0.000213961 0)
(0.0972855 0.000220822 0)
(0.0971185 0.000227841 0)
(0.0969498 0.000235042 0)
(0.0967794 0.000242428 0)
(0.0966074 0.000249978 0)
(0.0964337 0.000257655 0)
(0.0962585 0.000265403 0)
(0.0960819 0.000273152 0)
(0.0959039 0.000280831 0)
(0.0957248 0.000288371 0)
(0.0955447 0.000295712 0)
(0.0953639 0.000302802 0)
(0.0951827 0.000309602 0)
(0.0950012 0.000316083 0)
(0.0948198 0.000322234 0)
(0.0946387 0.000328068 0)
(0.094458 0.000333611 0)
(0.0942781 0.000338902 0)
(0.094099 0.000343994 0)
(0.093921 0.000348952 0)
(0.0937441 0.000353847 0)
(0.0935684 0.000358755 0)
(0.093394 0.000363753 0)
(0.0932208 0.000368919 0)
(0.0930489 0.000374332 0)
(0.0928783 0.000380067 0)
(0.0927087 0.000386199 0)
(0.0925403 0.000392797 0)
(0.0923727 0.000399926 0)
(0.0922061 0.000407642 0)
(0.0920401 0.000415998 0)
(0.0918748 0.000425044 0)
(0.0917099 0.000434835 0)
(0.0915452 0.000445427 0)
(0.0913808 0.000456888 0)
(0.0912162 0.000469302 0)
(0.0910515 0.000482779 0)
(0.0908864 0.000497465 0)
(0.0907206 0.000513558 0)
(0.0905538 0.00053132 0)
(0.0903858 0.000551099 0)
(0.090216 0.000573342 0)
(0.090044 0.000598628 0)
(0.0898691 0.000627693 0)
(0.0896906 0.000661477 0)
(0.0895075 0.000701165 0)
(0.0893187 0.000748265 0)
(0.0891229 0.000804693 0)
(0.0889186 0.000872888 0)
(0.0887039 0.000955975 0)
(0.0884768 0.00105797 0)
(0.0882349 0.00118405 0)
(0.0879759 0.00134097 0)
(0.0876971 0.0015375 0)
(0.0873965 0.00178516 0)
(0.0870725 0.002099 0)
(0.0867255 0.00249874 0)
(0.0863593 0.00300991 0)
(0.0859836 0.00366496 0)
(0.0856179 0.00450353 0)
(0.085298 0.00557036 0)
(0.0850833 0.00690733 0)
(0.0850654 0.00853392 0)
(0.0853709 0.0104075 0)
(0.0861459 0.0123548 0)
(0.0874789 0.0139842 0)
(0.0999775 0.000209474 0)
(0.0998052 0.000380123 0)
(0.0995328 0.000380124 0)
(0.0992778 0.000290657 0)
(0.099073 0.000215486 0)
(0.0989051 0.000184839 0)
(0.0987541 0.000184848 0)
(0.0986071 0.000197064 0)
(0.0984589 0.000211179 0)
(0.0983081 0.000223703 0)
(0.0981547 0.000234316 0)
(0.0979991 0.000243625 0)
(0.0978417 0.000252262 0)
(0.0976826 0.000260656 0)
(0.097522 0.000269058 0)
(0.0973599 0.0002776 0)
(0.0971962 0.00028634 0)
(0.0970311 0.00029531 0)
(0.0968644 0.000304509 0)
(0.0966962 0.000313915 0)
(0.0965265 0.000323483 0)
(0.0963554 0.000333144 0)
(0.096183 0.000342815 0)
(0.0960094 0.000352412 0)
(0.0958347 0.000361852 0)
(0.0956591 0.000371062 0)
(0.0954828 0.000379979 0)
(0.095306 0.000388555 0)
(0.0951289 0.000396755 0)
(0.0949518 0.000404568 0)
(0.0947748 0.000412005 0)
(0.0945982 0.000419098 0)
(0.0944221 0.000425893 0)
(0.0942468 0.000432453 0)
(0.0940722 0.000438856 0)
(0.0938986 0.000445187 0)
(0.093726 0.000451536 0)
(0.0935545 0.000457996 0)
(0.0933841 0.000464663 0)
(0.0932148 0.00047163 0)
(0.0930465 0.000478988 0)
(0.0928793 0.000486827 0)
(0.0927131 0.000495231 0)
(0.0925478 0.000504274 0)
(0.0923834 0.000514026 0)
(0.0922197 0.000524548 0)
(0.0920566 0.000535901 0)
(0.0918941 0.000548149 0)
(0.091732 0.000561359 0)
(0.0915702 0.000575611 0)
(0.0914087 0.000591004 0)
(0.0912473 0.000607669 0)
(0.0910857 0.000625779 0)
(0.0909239 0.000645569 0)
(0.0907617 0.000667348 0)
(0.0905987 0.000691521 0)
(0.0904347 0.000718615 0)
(0.0902693 0.000749298 0)
(0.0901021 0.00078442 0)
(0.0899324 0.000825051 0)
(0.0897597 0.000872532 0)
(0.0895833 0.000928546 0)
(0.0894023 0.000995203 0)
(0.0892158 0.00107514 0)
(0.0890231 0.00117169 0)
(0.0888231 0.00128902 0)
(0.0886152 0.00143237 0)
(0.0883989 0.00160837 0)
(0.0881744 0.00182533 0)
(0.0879432 0.00209365 0)
(0.0877084 0.00242631 0)
(0.0874762 0.00283919 0)
(0.0872572 0.00335134 0)
(0.087069 0.00398471 0)
(0.0869388 0.00476268 0)
(0.0869073 0.00570636 0)
(0.0870317 0.00682673 0)
(0.0873865 0.00811 0)
(0.0880572 0.00949428 0)
(0.089117 0.0108401 0)
(0.0905757 0.0119122 0)
(0.099987 0.000233866 0)
(0.0998541 0.000438623 0)
(0.0996174 0.000451379 0)
(0.0993732 0.000356947 0)
(0.099163 0.000271887 0)
(0.0989854 0.000234362 0)
(0.0988265 0.000231669 0)
(0.0986753 0.000243861 0)
(0.0985258 0.000259156 0)
(0.0983756 0.000273251 0)
(0.098224 0.000285506 0)
(0.0980709 0.000296444 0)
(0.0979165 0.0003067 0)
(0.0977606 0.000316724 0)
(0.0976035 0.000326788 0)
(0.0974451 0.000337031 0)
(0.0972853 0.00034752 0)
(0.0971242 0.000358288 0)
(0.0969617 0.000369333 0)
(0.096798 0.000380627 0)
(0.0966329 0.000392121 0)
(0.0964665 0.000403735 0)
(0.096299 0.000415375 0)
(0.0961303 0.000426944 0)
(0.0959607 0.000438346 0)
(0.0957902 0.000449498 0)
(0.095619 0.000460327 0)
(0.0954474 0.000470777 0)
(0.0952754 0.00048081 0)
(0.0951032 0.000490408 0)
(0.0949311 0.000499586 0)
(0.0947591 0.000508376 0)
(0.0945875 0.000516832 0)
(0.0944165 0.000525026 0)
(0.094246 0.000533045 0)
(0.0940763 0.000540984 0)
(0.0939073 0.000548948 0)
(0.0937393 0.000557043 0)
(0.0935722 0.000565378 0)
(0.093406 0.00057406 0)
(0.0932407 0.000583195 0)
(0.0930764 0.000592884 0)
(0.092913 0.000603222 0)
(0.0927505 0.000614292 0)
(0.0925888 0.000626173 0)
(0.092428 0.000638934 0)
(0.0922679 0.000652645 0)
(0.0921084 0.000667374 0)
(0.0919497 0.000683196 0)
(0.0917915 0.0007002 0)
(0.0916338 0.000718497 0)
(0.0914766 0.000738232 0)
(0.0913198 0.0007596 0)
(0.0911633 0.00078286 0)
(0.0910069 0.000808357 0)
(0.0908505 0.000836538 0)
(0.090694 0.00086798 0)
(0.0905371 0.000903412 0)
(0.0903796 0.00094375 0)
(0.0902212 0.000990135 0)
(0.0900616 0.00104398 0)
(0.0899006 0.00110703 0)
(0.0897379 0.00118144 0)
(0.0895734 0.00126985 0)
(0.0894069 0.00137548 0)
(0.0892388 0.00150231 0)
(0.0890698 0.00165514 0)
(0.0889013 0.00183982 0)
(0.0887357 0.00206335 0)
(0.0885771 0.00233406 0)
(0.0884315 0.00266159 0)
(0.0883085 0.00305686 0)
(0.0882217 0.0035316 0)
(0.0881906 0.00409735 0)
(0.0882419 0.00476353 0)
(0.0884111 0.00553405 0)
(0.088742 0.00640159 0)
(0.0892846 0.00733936 0)
(0.0900869 0.00829064 0)
(0.0911781 0.00915993 0)
(0.0925415 0.00981565 0)
(0.0999948 0.000251968 0)
(0.0998969 0.000489987 0)
(0.0996951 0.000520488 0)
(0.0994647 0.000426521 0)
(0.0992529 0.000334198 0)
(0.0990683 0.000289918 0)
(0.0989032 0.000283614 0)
(0.0987486 0.000294804 0)
(0.0985982 0.000310571 0)
(0.0984488 0.000325809 0)
(0.0982993 0.000339471 0)
(0.098149 0.000351919 0)
(0.0979978 0.00036374 0)
(0.0978456 0.000375374 0)
(0.0976923 0.000387096 0)
(0.0975379 0.000399047 0)
(0.0973825 0.000411297 0)
(0.0972259 0.000423877 0)
(0.0970681 0.000436784 0)
(0.0969092 0.000449987 0)
(0.0967491 0.000463429 0)
(0.0965879 0.000477022 0)
(0.0964257 0.000490664 0)
(0.0962625 0.000504247 0)
(0.0960984 0.000517665 0)
(0.0959335 0.000530825 0)
(0.0957679 0.000543647 0)
(0.0956018 0.000556068 0)
(0.0954354 0.000568043 0)
(0.0952686 0.000579556 0)
(0.0951018 0.000590616 0)
(0.0949351 0.000601261 0)
(0.0947685 0.000611547 0)
(0.0946022 0.000621551 0)
(0.0944363 0.000631368 0)
(0.0942709 0.000641103 0)
(0.0941062 0.000650869 0)
(0.0939421 0.000660782 0)
(0.0937788 0.000670962 0)
(0.0936162 0.000681526 0)
(0.0934545 0.000692591 0)
(0.0932936 0.000704266 0)
(0.0931336 0.000716654 0)
(0.0929745 0.000729844 0)
(0.0928162 0.00074392 0)
(0.0926589 0.000758957 0)
(0.0925024 0.000775027 0)
(0.0923469 0.000792201 0)
(0.0921922 0.000810557 0)
(0.0920385 0.000830188 0)
(0.0918856 0.000851209 0)
(0.0917337 0.000873771 0)
(0.0915827 0.00089808 0)
(0.0914326 0.000924408 0)
(0.0912835 0.000953116 0)
(0.0911352 0.00098467 0)
(0.0909878 0.00101966 0)
(0.0908412 0.00105885 0)
(0.0906955 0.00110315 0)
(0.0905506 0.0011537 0)
(0.0904067 0.0012119 0)
(0.0902638 0.00127943 0)
(0.0901223 0.00135832 0)
(0.0899827 0.001451 0)
(0.0898458 0.00156035 0)
(0.0897128 0.00168979 0)
(0.0895855 0.00184329 0)
(0.0894667 0.00202547 0)
(0.0893604 0.00224151 0)
(0.0892719 0.00249715 0)
(0.0892089 0.00279843 0)
(0.0891817 0.00315132 0)
(0.0892038 0.00356107 0)
(0.0892927 0.00403105 0)
(0.0894703 0.00456114 0)
(0.0897627 0.00514535 0)
(0.0901985 0.0057687 0)
(0.0908065 0.0064036 0)
(0.0916089 0.00700667 0)
(0.0926119 0.0075182 0)
(0.093794 0.0078683 0)
(0.1 0.000264326 0)
(0.0999315 0.000534108 0)
(0.0997619 0.000586661 0)
(0.0995476 0.000498368 0)
(0.0993383 0.000401705 0)
(0.0991501 0.000351197 0)
(0.0989811 0.000340643 0)
(0.0988242 0.00034997 0)
(0.0986734 0.000365519 0)
(0.0985254 0.000381445 0)
(0.0983782 0.000396247 0)
(0.0982309 0.000410058 0)
(0.0980832 0.000423363 0)
(0.0979349 0.000436564 0)
(0.0977858 0.000449921 0)
(0.0976358 0.000463571 0)
(0.0974849 0.00047758 0)
(0.0973331 0.000491974 0)
(0.0971803 0.000506749 0)
(0.0970265 0.000521869 0)
(0.0968718 0.000537271 0)
(0.0967161 0.000552861 0)
(0.0965595 0.000568528 0)
(0.096402 0.000584159 0)
(0.0962437 0.000599638 0)
(0.0960847 0.000614866 0)
(0.0959251 0.000629757 0)
(0.0957649 0.000644241 0)
(0.0956042 0.00065827 0)
(0.0954433 0.000671824 0)
(0.0952821 0.000684913 0)
(0.0951209 0.000697572 0)
(0.0949596 0.00070986 0)
(0.0947985 0.000721857 0)
(0.0946376 0.000733662 0)
(0.094477 0.000745383 0)
(0.0943169 0.00075714 0)
(0.0941572 0.000769056 0)
(0.0939981 0.000781255 0)
(0.0938398 0.000793862 0)
(0.0936821 0.000806999 0)
(0.0935252 0.00082078 0)
(0.0933692 0.000835309 0)
(0.0932141 0.000850681 0)
(0.0930599 0.000866979 0)
(0.0929068 0.000884279 0)
(0.0927548 0.00090265 0)
(0.0926039 0.000922162 0)
(0.0924542 0.000942889 0)
(0.0923058 0.000964919 0)
(0.0921588 0.000988363 0)
(0.0920132 0.00101337 0)
(0.0918692 0.00104014 0)
(0.0917268 0.00106894 0)
(0.0915862 0.00110012 0)
(0.0914474 0.00113414 0)
(0.0913106 0.00117159 0)
(0.0911761 0.00121316 0)
(0.091044 0.00125975 0)
(0.0909146 0.00131242 0)
(0.0907883 0.00137242 0)
(0.0906657 0.00144127 0)
(0.0905476 0.00152071 0)
(0.090435 0.00161279 0)
(0.0903294 0.00171984 0)
(0.0902326 0.0018445 0)
(0.0901474 0.00198966 0)
(0.0900772 0.00215845 0)
(0.0900266 0.00235414 0)
(0.0900016 0.00257986 0)
(0.0900096 0.00283841 0)
(0.0900601 0.00313172 0)
(0.0901647 0.00346024 0)
(0.0903372 0.00382207 0)
(0.090593 0.00421189 0)
(0.090949 0.00461967 0)
(0.0914216 0.00502945 0)
(0.0920245 0.00541836 0)
(0.0927649 0.00575659 0)
(0.0936392 0.00600922 0)
(0.094628 0.00614098 0)
(0.100004 0.000271882 0)
(0.0999574 0.000571441 0)
(0.0998161 0.000649404 0)
(0.0996194 0.000571421 0)
(0.0994162 0.000473418 0)
(0.0992282 0.000417591 0)
(0.0990577 0.000402491 0)
(0.0988999 0.000409292 0)
(0.0987497 0.000424012 0)
(0.0986033 0.00044019 0)
(0.0984587 0.000455849 0)
(0.0983147 0.000470849 0)
(0.0981708 0.000485536 0)
(0.0980265 0.000500243 0)
(0.0978818 0.000515198 0)
(0.0977364 0.000530523 0)
(0.0975904 0.000546277 0)
(0.0974435 0.000562479 0)
(0.0972959 0.000579119 0)
(0.0971475 0.000596157 0)
(0.0969983 0.000613524 0)
(0.0968482 0.000631121 0)
(0.0966974 0.000648832 0)
(0.0965458 0.000666538 0)
(0.0963935 0.00068412 0)
(0.0962405 0.000701471 0)
(0.0960869 0.000718502 0)
(0.0959328 0.000735138 0)
(0.0957782 0.000751328 0)
(0.0956232 0.00076705 0)
(0.0954679 0.00078231 0)
(0.0953124 0.000797142 0)
(0.0951567 0.000811603 0)
(0.0950011 0.000825773 0)
(0.0948454 0.000839749 0)
(0.09469 0.000853643 0)
(0.0945348 0.000867572 0)
(0.0943801 0.000881662 0)
(0.0942257 0.000896038 0)
(0.094072 0.000910828 0)
(0.093919 0.000926153 0)
(0.0937667 0.000942127 0)
(0.0936153 0.000958854 0)
(0.0934649 0.000976424 0)
(0.0933155 0.000994919 0)
(0.0931674 0.00101441 0)
(0.0930206 0.00103495 0)
(0.0928752 0.0010566 0)
(0.0927314 0.00107944 0)
(0.0925893 0.00110352 0)
(0.0924491 0.00112895 0)
(0.0923109 0.00115586 0)
(0.092175 0.00118443 0)
(0.0920415 0.00121489 0)
(0.0919107 0.00124758 0)
(0.0917828 0.00128291 0)
(0.0916582 0.00132138 0)
(0.0915371 0.00136365 0)
(0.0914201 0.00141048 0)
(0.0913077 0.00146277 0)
(0.0912007 0.00152158 0)
(0.0910998 0.00158814 0)
(0.0910062 0.0016638 0)
(0.0909214 0.00175009 0)
(0.0908473 0.00184865 0)
(0.0907862 0.00196123 0)
(0.090741 0.0020896 0)
(0.0907155 0.00223542 0)
(0.0907142 0.00240015 0)
(0.0907427 0.00258477 0)
(0.0908075 0.00278954 0)
(0.0909165 0.00301358 0)
(0.0910783 0.0032544 0)
(0.0913026 0.00350739 0)
(0.0915991 0.0037653 0)
(0.0919775 0.00401773 0)
(0.0924456 0.00425096 0)
(0.0930083 0.00444821 0)
(0.0936653 0.00459058 0)
(0.0944098 0.00465897 0)
(0.0952263 0.00463702 0)
(0.100006 0.000275735 0)
(0.0999755 0.000602797 0)
(0.0998583 0.000708505 0)
(0.0996795 0.0006447 0)
(0.0994854 0.000548254 0)
(0.0993008 0.000488325 0)
(0.0991312 0.000468734 0)
(0.0989741 0.000472591 0)
(0.0988252 0.000486001 0)
(0.0986811 0.000502036 0)
(0.0985394 0.000518276 0)
(0.098399 0.000534283 0)
(0.0982589 0.000550232 0)
(0.0981189 0.000566367 0)
(0.0979787 0.000582869 0)
(0.0978381 0.000599837 0)
(0.097697 0.000617314 0)
(0.0975554 0.000635311 0)
(0.0974131 0.000653808 0)
(0.0972701 0.000672762 0)
(0.0971265 0.000692095 0)
(0.0969822 0.000711706 0)
(0.0968372 0.000731476 0)
(0.0966915 0.000751281 0)
(0.0965453 0.000771002 0)
(0.0963984 0.000790528 0)
(0.0962509 0.000809765 0)
(0.0961029 0.000828637 0)
(0.0959544 0.000847091 0)
(0.0958054 0.000865101 0)
(0.0956561 0.000882669 0)
(0.0955065 0.000899823 0)
(0.0953566 0.000916616 0)
(0.0952066 0.000933124 0)
(0.0950566 0.00094944 0)
(0.0949066 0.000965671 0)
(0.0947567 0.00098193 0)
(0.0946072 0.000998339 0)
(0.0944581 0.00101502 0)
(0.0943096 0.0010321 0)
(0.0941617 0.00104969 0)
(0.0940146 0.0010679 0)
(0.0938685 0.00108682 0)
(0.0937234 0.00110655 0)
(0.0935797 0.00112715 0)
(0.0934373 0.00114867 0)
(0.0932966 0.00117116 0)
(0.0931576 0.00119467 0)
(0.0930206 0.00121923 0)
(0.0928858 0.00124489 0)
(0.0927535 0.00127172 0)
(0.0926238 0.00129982 0)
(0.0924971 0.00132933 0)
(0.0923737 0.00136045 0)
(0.0922539 0.00139344 0)
(0.0921381 0.00142863 0)
(0.0920268 0.00146646 0)
(0.0919205 0.00150742 0)
(0.0918197 0.00155212 0)
(0.0917254 0.00160126 0)
(0.0916384 0.00165561 0)
(0.0915597 0.00171603 0)
(0.0914909 0.00178344 0)
(0.0914335 0.00185879 0)
(0.0913896 0.00194299 0)
(0.0913617 0.00203692 0)
(0.0913526 0.00214128 0)
(0.0913659 0.00225648 0)
(0.0914056 0.00238254 0)
(0.0914764 0.00251886 0)
(0.0915835 0.00266401 0)
(0.0917326 0.00281546 0)
(0.0919296 0.00296936 0)
(0.0921806 0.00312024 0)
(0.0924911 0.00326088 0)
(0.0928657 0.0033823 0)
(0.093307 0.00347404 0)
(0.0938154 0.00352479 0)
(0.0943877 0.00352346 0)
(0.0950167 0.00346063 0)
(0.0956909 0.00333014 0)
(0.100006 0.000276956 0)
(0.0999873 0.000629164 0)
(0.0998899 0.000763989 0)
(0.0997285 0.000717388 0)
(0.0995456 0.000625158 0)
(0.0993669 0.000562551 0)
(0.0992005 0.000538839 0)
(0.0990456 0.000539592 0)
(0.098899 0.00055136 0)
(0.0987576 0.000566929 0)
(0.0986193 0.000583497 0)
(0.0984825 0.000600329 0)
(0.0983466 0.000617413 0)
(0.0982111 0.00063489 0)
(0.0980755 0.000652881 0)
(0.0979398 0.000671451 0)
(0.0978038 0.000690625 0)
(0.0976673 0.000710399 0)
(0.0975304 0.000730745 0)
(0.097393 0.000751609 0)
(0.097255 0.000772909 0)
(0.0971164 0.000794541 0)
(0.0969773 0.000816383 0)
(0.0968376 0.000838312 0)
(0.0966973 0.000860208 0)
(0.0965565 0.000881958 0)
(0.0964151 0.000903465 0)
(0.0962732 0.000924651 0)
(0.0961308 0.000945462 0)
(0.0959879 0.000965867 0)
(0.0958446 0.000985862 0)
(0.095701 0.00100547 0)
(0.095557 0.00102473 0)
(0.0954129 0.00104372 0)
(0.0952686 0.00106251 0)
(0.0951244 0.00108121 0)
(0.0949802 0.00109992 0)
(0.0948364 0.00111875 0)
(0.094693 0.00113782 0)
(0.0945501 0.00115724 0)
(0.094408 0.00117712 0)
(0.0942667 0.00119754 0)
(0.0941265 0.0012186 0)
(0.0939876 0.00124037 0)
(0.0938502 0.00126289 0)
(0.0937145 0.0012862 0)
(0.0935807 0.00131032 0)
(0.093449 0.00133526 0)
(0.0933198 0.00136103 0)
(0.0931933 0.00138765 0)
(0.0930698 0.00141514 0)
(0.0929496 0.00144355 0)
(0.0928332 0.00147297 0)
(0.0927209 0.00150352 0)
(0.0926132 0.00153539 0)
(0.0925105 0.00156881 0)
(0.0924134 0.00160406 0)
(0.0923227 0.00164151 0)
(0.0922389 0.00168153 0)
(0.0921631 0.00172458 0)
(0.0920962 0.00177112 0)
(0.0920396 0.0018216 0)
(0.0919946 0.00187649 0)
(0.091963 0.00193615 0)
(0.0919468 0.00200086 0)
(0.0919483 0.00207071 0)
(0.0919701 0.00214551 0)
(0.0920152 0.00222476 0)
(0.0920869 0.00230744 0)
(0.0921887 0.00239196 0)
(0.0923244 0.00247599 0)
(0.0924978 0.00255632 0)
(0.0927126 0.00262875 0)
(0.0929721 0.00268807 0)
(0.0932788 0.00272806 0)
(0.0936343 0.00274173 0)
(0.0940386 0.00272171 0)
(0.0944899 0.00266096 0)
(0.0949843 0.0025536 0)
(0.0955158 0.00239596 0)
(0.096076 0.00218742 0)
(0.100006 0.000276482 0)
(0.0999943 0.000651567 0)
(0.0999127 0.000816058 0)
(0.0997678 0.000788888 0)
(0.0995971 0.000703203 0)
(0.0994264 0.000639428 0)
(0.0992649 0.000612227 0)
(0.0991136 0.000609946 0)
(0.0989702 0.000619893 0)
(0.0988322 0.000634764 0)
(0.0986975 0.000651446 0)
(0.0985647 0.000668932 0)
(0.0984331 0.000687025 0)
(0.0983021 0.000705753 0)
(0.0981714 0.000725169 0)
(0.0980406 0.000745297 0)
(0.0979097 0.000766138 0)
(0.0977786 0.000787671 0)
(0.0976471 0.000809853 0)
(0.0975151 0.000832622 0)
(0.0973828 0.000855891 0)
(0.0972499 0.000879552 0)
(0.0971166 0.000903483 0)
(0.0969828 0.000927561 0)
(0.0968485 0.000951667 0)
(0.0967137 0.000975687 0)
(0.0965784 0.000999523 0)
(0.0964425 0.00102309 0)
(0.0963062 0.00104634 0)
(0.0961694 0.00106923 0)
(0.0960322 0.00109175 0)
(0.0958946 0.00111392 0)
(0.0957567 0.00113575 0)
(0.0956185 0.00115732 0)
(0.0954803 0.00117869 0)
(0.0953421 0.00119994 0)
(0.095204 0.00122117 0)
(0.0950663 0.00124247 0)
(0.094929 0.00126394 0)
(0.0947923 0.00128569 0)
(0.0946565 0.0013078 0)
(0.0945217 0.00133035 0)
(0.0943882 0.0013534 0)
(0.0942562 0.001377 0)
(0.0941259 0.00140116 0)
(0.0939976 0.0014259 0)
(0.0938715 0.0014512 0)
(0.0937481 0.00147704 0)
(0.0936275 0.00150337 0)
(0.0935102 0.00153018 0)
(0.0933965 0.00155743 0)
(0.0932869 0.00158511 0)
(0.0931816 0.00161324 0)
(0.0930813 0.00164185 0)
(0.0929864 0.00167102 0)
(0.0928976 0.00170085 0)
(0.0928154 0.00173149 0)
(0.0927405 0.00176309 0)
(0.0926739 0.00179584 0)
(0.0926164 0.00182988 0)
(0.0925692 0.00186537 0)
(0.0925334 0.00190239 0)
(0.0925106 0.00194096 0)
(0.0925023 0.00198094 0)
(0.0925103 0.00202206 0)
(0.0925365 0.00206381 0)
(0.0925833 0.00210538 0)
(0.0926528 0.00214561 0)
(0.0927476 0.00218292 0)
(0.0928702 0.00221523 0)
(0.0930229 0.00223988 0)
(0.0932081 0.00225361 0)
(0.0934277 0.00225252 0)
(0.0936831 0.00223215 0)
(0.0939752 0.00218759 0)
(0.0943038 0.00211376 0)
(0.0946677 0.00200581 0)
(0.0950645 0.00185971 0)
(0.0954907 0.00167295 0)
(0.0959413 0.00144524 0)
(0.0964105 0.00117891 0)
(0.100006 0.000275077 0)
(0.0999978 0.000671 0)
(0.0999286 0.000865063 0)
(0.0997988 0.000858832 0)
(0.0996408 0.00078163 0)
(0.0994793 0.000718188 0)
(0.0993242 0.000688306 0)
(0.0991777 0.000683253 0)
(0.0990384 0.000691356 0)
(0.0989043 0.000705389 0)
(0.0987736 0.00072202 0)
(0.0986452 0.000740015 0)
(0.098518 0.000759002 0)
(0.0983917 0.000778893 0)
(0.0982659 0.000799668 0)
(0.0981402 0.000821308 0)
(0.0980145 0.000843784 0)
(0.0978886 0.000867054 0)
(0.0977625 0.00089106 0)
(0.0976361 0.000915729 0)
(0.0975094 0.000940969 0)
(0.0973822 0.000966667 0)
(0.0972547 0.000992704 0)
(0.0971268 0.00101896 0)
(0.0969983 0.0010453 0)
(0.0968695 0.00107163 0)
(0.0967401 0.00109785 0)
(0.0966103 0.00112386 0)
(0.09648 0.00114961 0)
(0.0963493 0.00117506 0)
(0.0962182 0.00120017 0)
(0.0960867 0.00122496 0)
(0.095955 0.00124943 0)
(0.0958231 0.00127362 0)
(0.0956911 0.0012976 0)
(0.0955593 0.00132143 0)
(0.0954276 0.00134517 0)
(0.0952964 0.00136891 0)
(0.0951657 0.00139274 0)
(0.0950358 0.00141672 0)
(0.0949069 0.00144093 0)
(0.0947792 0.00146542 0)
(0.094653 0.00149022 0)
(0.0945286 0.00151533 0)
(0.0944061 0.00154076 0)
(0.094286 0.00156647 0)
(0.0941686 0.00159239 0)
(0.0940542 0.00161845 0)
(0.0939431 0.00164458 0)
(0.0938359 0.00167067 0)
(0.0937328 0.00169664 0)
(0.0936343 0.00172241 0)
(0.093541 0.00174791 0)
(0.0934533 0.00177307 0)
(0.0933718 0.00179786 0)
(0.0932971 0.00182224 0)
(0.0932298 0.00184619 0)
(0.0931708 0.00186966 0)
(0.0931209 0.00189261 0)
(0.093081 0.00191493 0)
(0.0930522 0.00193647 0)
(0.0930355 0.00195699 0)
(0.0930324 0.00197613 0)
(0.0930441 0.00199337 0)
(0.0930722 0.00200802 0)
(0.0931183 0.00201915 0)
(0.093184 0.00202557 0)
(0.0932709 0.00202579 0)
(0.0933809 0.00201797 0)
(0.0935153 0.00199991 0)
(0.0936758 0.00196903 0)
(0.0938632 0.00192236 0)
(0.0940786 0.00185658 0)
(0.0943222 0.00176815 0)
(0.0945938 0.0016534 0)
(0.0948924 0.00150882 0)
(0.0952165 0.00133143 0)
(0.0955638 0.00111923 0)
(0.0959312 0.000871823 0)
(0.096315 0.000590836 0)
(0.0967109 0.000280267 0)
(0.100005 0.000273334 0)
(0.099999 0.00068835 0)
(0.0999394 0.000911418 0)
(0.099823 0.000927013 0)
(0.0996776 0.000859822 0)
(0.099526 0.000798127 0)
(0.0993785 0.000766458 0)
(0.0992377 0.000759052 0)
(0.0991033 0.00076543 0)
(0.0989737 0.00077858 0)
(0.0988475 0.000795057 0)