/*--------------------------------*- C++ -*----------------------------------*\
| =========                 |                                                 |
| \\      /  F ield         | OpenFOAM: The Open Source CFD Toolbox           |
|  \\    /   O peration     | Version:  4.1                                   |
|   \\  /    A nd           | Web:      www.OpenFOAM.org                      |
|    \\/     M anipulation  |                                                 |
\*---------------------------------------------------------------------------*/
FoamFile
{
    version     2.0;
    format      ascii;
    class       surfaceScalarField;
    location    "0.2";
    object      phi;
}
// * * * * * * * * * * * * * * * * * * * * * * * * * * * * * * * * * * * * * //

dimensions      [1 0 -1 0 0 0 0];

internalField   nonuniform List<scalar> 
23692
(
9.28787e-05
2.00813e-07
9.25533e-05
3.25421e-07
9.22549e-05
2.98443e-07
9.20488e-05
2.06052e-07
9.1909e-05
1.39806e-07
9.17925e-05
1.16552e-07
9.16742e-05
1.1832e-07
9.15462e-05
1.27947e-07
9.1409e-05
1.37246e-07
9.12649e-05
1.44105e-07
9.11161e-05
1.48802e-07
9.0964e-05
1.52109e-07
9.08093e-05
1.5465e-07
9.06525e-05
1.5681e-07
9.04938e-05
1.58797e-07
9.03331e-05
1.60713e-07
9.01705e-05
1.62597e-07
9.00061e-05
1.64471e-07
8.98398e-05
1.66335e-07
8.96717e-05
1.6817e-07
8.95018e-05
1.69947e-07
8.93303e-05
1.71627e-07
8.91573e-05
1.73166e-07
8.8983e-05
1.74518e-07
8.88076e-05
1.75651e-07
8.86313e-05
1.76533e-07
8.84546e-05
1.77146e-07
8.82775e-05
1.77479e-07
8.81006e-05
1.77532e-07
8.7924e-05
1.7731e-07
8.77479e-05
1.76836e-07
8.75728e-05
1.76144e-07
8.73987e-05
1.75265e-07
8.72258e-05
1.7424e-07
8.70542e-05
1.7311e-07
8.68841e-05
1.7192e-07
8.67155e-05
1.70711e-07
8.65483e-05
1.69524e-07
8.63826e-05
1.68395e-07
8.62183e-05
1.67356e-07
8.60553e-05
1.66438e-07
8.58934e-05
1.65669e-07
8.57325e-05
1.65071e-07
8.55724e-05
1.6466e-07
8.54131e-05
1.64452e-07
8.52541e-05
1.64453e-07
8.50955e-05
1.64674e-07
8.49369e-05
1.65119e-07
8.47781e-05
1.65799e-07
8.46189e-05
1.66725e-07
8.44591e-05
1.67912e-07
8.42983e-05
1.69384e-07
8.41362e-05
1.71177e-07
8.39726e-05
1.73342e-07
8.38068e-05
1.75949e-07
8.36384e-05
1.79093e-07
8.34667e-05
1.82899e-07
8.3291e-05
1.87529e-07
8.311e-05
1.93184e-07
8.29226e-05
2.00128e-07
8.27271e-05
2.08692e-07
8.25214e-05
2.19295e-07
8.2303e-05
2.32479e-07
8.20686e-05
2.48942e-07
8.18139e-05
2.69595e-07
8.15335e-05
2.95644e-07
8.12204e-05
3.28702e-07
8.08654e-05
3.70964e-07
8.04563e-05
4.25468e-07
7.99763e-05
4.96495e-07
7.9403e-05
5.90192e-07
7.87045e-05
7.15559e-07
7.78358e-05
8.86019e-07
7.67313e-05
1.12196e-06
7.52942e-05
1.45482e-06
7.33783e-05
1.93369e-06
7.07609e-05
2.6354e-06
6.70978e-05
3.68114e-06
6.1842e-05
5.27404e-06
5.407e-05
7.7902e-06
1.22234e-05
4.18649e-05
9.93937e-05
4.06419e-07
9.90527e-05
6.66503e-07
9.87358e-05
6.15336e-07
9.85143e-05
4.27551e-07
9.83623e-05
2.918e-07
9.82354e-05
2.43459e-07
9.81074e-05
2.46358e-07
9.79697e-05
2.6556e-07
9.78227e-05
2.84301e-07
9.76686e-05
2.98188e-07
9.75097e-05
3.07732e-07
9.73473e-05
3.14469e-07
9.71823e-05
3.19662e-07
9.70151e-05
3.24089e-07
9.68457e-05
3.28166e-07
9.66743e-05
3.32095e-07
9.6501e-05
3.35968e-07
9.63257e-05
3.39819e-07
9.61484e-05
3.43646e-07
9.59693e-05
3.47416e-07
9.57882e-05
3.5107e-07
9.56055e-05
3.54525e-07
9.54211e-05
3.5769e-07
9.52353e-05
3.60477e-07
9.50484e-05
3.62812e-07
9.48607e-05
3.64637e-07
9.46723e-05
3.65911e-07
9.44837e-05
3.66614e-07
9.42951e-05
3.66736e-07
9.41068e-05
3.66301e-07
9.39192e-05
3.65353e-07
9.37324e-05
3.63953e-07
9.35467e-05
3.62172e-07
9.33623e-05
3.60089e-07
9.31793e-05
3.57791e-07
9.29978e-05
3.55369e-07
9.28178e-05
3.52909e-07
9.26394e-05
3.50494e-07
9.24625e-05
3.48196e-07
9.2287e-05
3.46084e-07
9.21128e-05
3.44221e-07
9.19399e-05
3.42661e-07
9.1768e-05
3.4145e-07
9.1597e-05
3.40626e-07
9.14266e-05
3.40215e-07
9.12567e-05
3.40235e-07
9.10872e-05
3.40703e-07
9.09176e-05
3.41633e-07
9.07479e-05
3.43043e-07
9.05777e-05
3.44956e-07
9.04068e-05
3.47402e-07
9.0235e-05
3.50432e-07
9.00618e-05
3.54117e-07
8.98869e-05
3.58561e-07
8.97099e-05
3.63907e-07
8.95301e-05
3.70347e-07
8.93468e-05
3.78134e-07
8.91593e-05
3.87592e-07
8.89664e-05
3.99135e-07
8.87669e-05
4.13284e-07
8.8559e-05
4.30706e-07
8.83406e-05
4.52242e-07
8.81092e-05
4.78963e-07
8.78614e-05
5.12254e-07
8.7593e-05
5.53905e-07
8.72987e-05
6.06268e-07
8.69717e-05
6.72464e-07
8.6603e-05
7.56696e-07
8.61812e-05
8.64708e-07
8.56909e-05
1.00447e-06
8.51119e-05
1.18723e-06
8.44166e-05
1.42907e-06
8.35678e-05
1.75336e-06
8.25141e-05
2.19433e-06
8.11854e-05
2.80246e-06
7.94865e-05
3.65161e-06
7.72943e-05
4.84689e-06
7.4465e-05
6.52974e-06
7.08827e-05
8.87578e-06
6.66674e-05
1.2025e-05
1.55814e-05
6.3329e-05
0.000106375
6.07604e-07
0.000106027
1.01431e-06
0.000105696
9.46477e-07
0.000105456
6.66863e-07
0.000105288
4.60541e-07
0.000105146
3.84706e-07
0.000105006
3.86782e-07
0.000104857
4.14406e-07
0.000104699
4.42034e-07
0.000104535
4.62731e-07
0.000104366
4.77067e-07
0.000104193
4.87255e-07
0.000104017
4.95154e-07
0.000103839
5.01903e-07
0.00010366
5.08136e-07
0.000103478
5.14149e-07
0.000103293
5.20077e-07
0.000103107
5.25973e-07
0.000102919
5.31836e-07
0.000102729
5.37612e-07
0.000102537
5.43213e-07
0.000102343
5.48514e-07
0.000102148
5.53372e-07
0.000101951
5.57659e-07
0.000101753
5.6126e-07
0.000101553
5.64085e-07
0.000101354
5.66073e-07
0.000101154
5.6719e-07
0.000100954
5.67428e-07
0.000100754
5.66816e-07
0.000100555
5.65422e-07
0.000100356
5.63339e-07
0.000100159
5.60673e-07
9.99634e-05
5.57546e-07
9.97689e-05
5.54092e-07
9.95759e-05
5.50444e-07
9.93844e-05
5.46739e-07
9.91945e-05
5.43097e-07
9.90062e-05
5.39633e-07
9.88192e-05
5.3645e-07
9.86337e-05
5.33647e-07
9.84494e-05
5.31303e-07
9.82661e-05
5.29491e-07
9.80838e-05
5.28266e-07
9.79021e-05
5.27669e-07
9.77209e-05
5.27728e-07
9.754e-05
5.28467e-07
9.73592e-05
5.29909e-07
9.71782e-05
5.32079e-07
9.69968e-05
5.35013e-07
9.68146e-05
5.38757e-07
9.66315e-05
5.43386e-07
9.6447e-05
5.4901e-07
9.62608e-05
5.55785e-07
9.60724e-05
5.63926e-07
9.58813e-05
5.73721e-07
9.56867e-05
5.8555e-07
9.54878e-05
5.99897e-07
9.52836e-05
6.17377e-07
9.50726e-05
6.38767e-07
9.48533e-05
6.65044e-07
9.46237e-05
6.97444e-07
9.43812e-05
7.3753e-07
9.41228e-05
7.87296e-07
9.38444e-05
8.49306e-07
9.35412e-05
9.26883e-07
9.32072e-05
1.02438e-06
9.28345e-05
1.14757e-06
9.24137e-05
1.30417e-06
9.19324e-05
1.50466e-06
9.13755e-05
1.76341e-06
9.07238e-05
2.10028e-06
8.9954e-05
2.54292e-06
8.90385e-05
3.12976e-06
8.79475e-05
3.91368e-06
8.66543e-05
4.96516e-06
8.51502e-05
6.37152e-06
8.34761e-05
8.22453e-06
8.17934e-05
1.05792e-05
8.05168e-05
1.33224e-05
1.58091e-05
8.031e-05
0.000113854
7.95036e-07
0.000113511
1.35706e-06
0.00011317
1.28697e-06
0.000112911
9.25948e-07
0.000112721
6.50749e-07
0.000112561
5.4462e-07
0.000112405
5.42536e-07
0.000112244
5.76201e-07
0.000112074
6.11364e-07
0.000111899
6.38203e-07
0.000111719
6.57034e-07
0.000111536
6.70555e-07
0.00011135
6.81115e-07
0.000111161
6.90192e-07
0.000110971
6.98596e-07
0.000110778
7.06717e-07
0.000110584
7.14728e-07
0.000110387
7.22702e-07
0.000110188
7.30632e-07
0.000109987
7.38448e-07
0.000109785
7.46028e-07
0.00010958
7.53209e-07
0.000109374
7.59803e-07
0.000109166
7.65634e-07
0.000108957
7.70548e-07
0.000108747
7.74427e-07
0.000108537
7.77187e-07
0.000108326
7.78783e-07
0.000108115
7.792e-07
0.000107904
7.7848e-07
0.000107693
7.76711e-07
0.000107484
7.74015e-07
0.000107275
7.70535e-07
0.000107068
7.66434e-07
0.000106862
7.61885e-07
0.000106658
7.57075e-07
0.000106455
7.5218e-07
0.000106254
7.47365e-07
0.000106054
7.42783e-07
0.000105855
7.38575e-07
0.000105658
7.34868e-07
0.000105462
7.31777e-07
0.000105268
7.29391e-07
0.000105074
7.27786e-07
0.000104881
7.27016e-07
0.000104688
7.27122e-07
0.000104496
7.28131e-07
0.000104303
7.30077e-07
0.000104111
7.32993e-07
0.000103918
7.36922e-07
0.000103725
7.41932e-07
0.000103531
7.48119e-07
0.000103335
7.55628e-07
0.000103138
7.64667e-07
0.000102939
7.75519e-07
0.000102737
7.88566e-07
0.000102532
8.04303e-07
0.000102323
8.23362e-07
0.000102109
8.46543e-07
0.000101888
8.74845e-07
0.00010166
9.09522e-07
0.000101422
9.5214e-07
0.000101172
1.00466e-06
0.000100907
1.06957e-06
0.000100625
1.15001e-06
0.00010032
1.24997e-06
9.9989e-05
1.37461e-06
9.96254e-05
1.5306e-06
9.92228e-05
1.72663e-06
9.87735e-05
1.97412e-06
9.82694e-05
2.28812e-06
9.77019e-05
2.68853e-06
9.70645e-05
3.20148e-06
9.63547e-05
3.86089e-06
9.55806e-05
4.70935e-06
9.47706e-05
5.79687e-06
9.39902e-05
7.17381e-06
9.33658e-05
8.87103e-06
9.31117e-05
1.08554e-05
9.35176e-05
1.29388e-05
1.46313e-05
9.47178e-05
0.000121864
9.60106e-07
0.000121538
1.68319e-06
0.000121194
1.6311e-06
0.000120914
1.20566e-06
0.000120698
8.66364e-07
0.000120516
7.27194e-07
0.000120342
7.16497e-07
0.000120165
7.52685e-07
0.000119983
7.93228e-07
0.000119797
8.25057e-07
0.000119606
8.47805e-07
0.000119412
8.64381e-07
0.000119216
8.77473e-07
0.000119017
8.88802e-07
0.000118816
8.99334e-07
0.000118614
9.09537e-07
0.000118409
9.19613e-07
0.000118202
9.29648e-07
0.000117993
9.3963e-07
0.000117782
9.49472e-07
0.000117569
9.59025e-07
0.000117354
9.68086e-07
0.000117138
9.76422e-07
0.00011692
9.83818e-07
0.000116701
9.90078e-07
0.000116481
9.9506e-07
0.00011626
9.98654e-07
0.000116038
1.0008e-06
0.000115817
1.00149e-06
0.000115595
1.00077e-06
0.000115374
9.98739e-07
0.000115154
9.95551e-07
0.000114935
9.91382e-07
0.000114716
9.86432e-07
0.000114499
9.80919e-07
0.000114284
9.75069e-07
0.00011407
9.691e-07
0.000113857
9.63217e-07
0.000113645
9.57613e-07
0.000113436
9.52463e-07
0.000113227
9.47926e-07
0.000113019
9.4414e-07
0.000112813
9.41219e-07
0.000112608
9.39255e-07
0.000112403
9.38314e-07
0.000112199
9.38442e-07
0.000111995
9.39682e-07
0.000111792
9.42068e-07
0.000111588
9.45641e-07
0.000111384
9.50457e-07
0.00011118
9.56592e-07
0.000110975
9.64168e-07
0.000110769
9.73363e-07
0.000110562
9.84429e-07
0.000110353
9.97712e-07
0.000110142
1.01367e-06
0.000109928
1.03291e-06
0.00010971
1.05617e-06
0.000109488
1.08442e-06
0.000109261
1.11882e-06
0.000109027
1.16084e-06
0.000108784
1.21228e-06
0.000108532
1.27538e-06
0.000108268
1.35291e-06
0.000107989
1.44832e-06
0.000107693
1.56593e-06
0.000107376
1.71112e-06
0.000107037
1.89069e-06
0.000106672
2.11318e-06
0.000106278
2.38935e-06
0.000105855
2.73271e-06
0.000105406
3.16005e-06
0.000104938
3.69188e-06
0.000104469
4.35243e-06
0.000104033
5.16853e-06
0.000103687
6.16597e-06
0.000103523
7.36093e-06
0.000103675
8.74281e-06
0.00010431
1.02444e-05
0.000105574
1.16981e-05
1.27956e-05
0.000107433
0.00013044
1.09673e-06
0.00013014
1.9831e-06
0.000129798
1.97297e-06
0.000129499
1.50514e-06
0.000129255
1.10963e-06
0.000129047
9.35331e-07
0.000128853
9.11002e-07
0.00012866
9.45382e-07
0.000128465
9.88496e-07
0.000128266
1.02372e-06
0.000128064
1.04955e-06
0.00012786
1.06873e-06
0.000127653
1.0841e-06
0.000127445
1.09753e-06
0.000127234
1.11009e-06
0.000127021
1.12229e-06
0.000126807
1.13436e-06
0.00012659
1.14639e-06
0.000126371
1.15836e-06
0.000126151
1.17018e-06
0.000125928
1.18165e-06
0.000125704
1.19255e-06
0.000125478
1.20261e-06
0.00012525
1.21156e-06
0.000125022
1.21919e-06
0.000124792
1.22531e-06
0.000124561
1.2298e-06
0.00012433
1.2326e-06
0.000124099
1.23367e-06
0.000123867
1.23308e-06
0.000123636
1.23095e-06
0.000123406
1.22744e-06
0.000123176
1.22276e-06
0.000122947
1.21715e-06
0.000122719
1.21086e-06
0.000122493
1.20415e-06
0.000122267
1.19728e-06
0.000122043
1.19048e-06
0.000121821
1.184e-06
0.000121599
1.17803e-06
0.000121379
1.17276e-06
0.00012116
1.16835e-06
0.000120942
1.16493e-06
0.000120725
1.16261e-06
0.000120509
1.16148e-06
0.000120294
1.16157e-06
0.000120079
1.16294e-06
0.000119864
1.16562e-06
0.00011965
1.16967e-06
0.000119436
1.17514e-06
0.000119221
1.18213e-06
0.000119007
1.19077e-06
0.000118791
1.20127e-06
0.000118575
1.2139e-06
0.000118358
1.22909e-06
0.000118139
1.24733e-06
0.000117918
1.2693e-06
0.000117695
1.29585e-06
0.000117468
1.32803e-06
0.000117238
1.36713e-06
0.000117002
1.41473e-06
0.00011676
1.47274e-06
0.000116512
1.5435e-06
0.000116255
1.62986e-06
0.000115988
1.73526e-06
0.000115712
1.86391e-06
0.000115424
2.02088e-06
0.000115124
2.21234e-06
0.000114814
2.44569e-06
0.000114496
2.72977e-06
0.000114178
3.07498e-06
0.000113868
3.49322e-06
0.000113586
3.9976e-06
0.000113361
4.60154e-06
0.000113238
5.31675e-06
0.000113279
6.14941e-06
0.000113571
7.09343e-06
0.000114219
8.11962e-06
0.000115328
9.16077e-06
0.000116955
1.00963e-05
1.07507e-05
0.000119025
0.000139617
1.2024e-06
0.00013935
2.25054e-06
0.000139016
2.30717e-06
0.000138699
1.82176e-06
0.000138428
1.38054e-06
0.000138193
1.1703e-06
0.000137977
1.12751e-06
0.000137766
1.15544e-06
0.000137557
1.19791e-06
0.000137346
1.2346e-06
0.000137133
1.26241e-06
0.000136918
1.2836e-06
0.000136702
1.30089e-06
0.000136483
1.31619e-06
0.000136263
1.33059e-06
0.00013604
1.34464e-06
0.000135816
1.35858e-06
0.00013559
1.3725e-06
0.000135362
1.38636e-06
0.000135132
1.40005e-06
0.000134901
1.41337e-06
0.000134667
1.42604e-06
0.000134432
1.43775e-06
0.000134196
1.44824e-06
0.000133958
1.45723e-06
0.00013372
1.46452e-06
0.00013348
1.46998e-06
0.00013324
1.47351e-06
0.000132999
1.47511e-06
0.000132758
1.47482e-06
0.000132518
1.47277e-06
0.000132278
1.46915e-06
0.000132038
1.46419e-06
0.000131799
1.45816e-06
0.000131561
1.45132e-06
0.000131324
1.44398e-06
0.000131087
1.43643e-06
0.000130852
1.42893e-06
0.000130619
1.42173e-06
0.000130386
1.41508e-06
0.000130155
1.40919e-06
0.000129924
1.40423e-06
0.000129695
1.40035e-06
0.000129467
1.39766e-06
0.00012924
1.39625e-06
0.000129013
1.39619e-06
0.000128787
1.39751e-06
0.000128562
1.40026e-06
0.000128338
1.40449e-06
0.000128114
1.41026e-06
0.00012789
1.41766e-06
0.000127667
1.42685e-06
0.000127443
1.43804e-06
0.00012722
1.45155e-06
0.000126996
1.4678e-06
0.000126772
1.48735e-06
0.000126547
1.5109e-06
0.000126321
1.53935e-06
0.000126093
1.57379e-06
0.000125863
1.61554e-06
0.000125631
1.66617e-06
0.000125396
1.7276e-06
0.000125158
1.80206e-06
0.000124917
1.89225e-06
0.000124673
2.00129e-06
0.000124427
2.13289e-06
0.000124179
2.29135e-06
0.000123934
2.48159e-06
0.000123694
2.70923e-06
0.000123468
2.98048e-06
0.000123265
3.30197e-06
0.000123103
3.68038e-06
0.000123005
4.12176e-06
0.000123002
4.63038e-06
0.000123137
5.20684e-06
0.000123468
5.84526e-06
0.000124058
6.52924e-06
0.000124978
7.22668e-06
0.000126281
7.88444e-06
0.000127978
8.42591e-06
8.75801e-06
0.000129998
0.000149434
1.27817e-06
0.000149201
2.48302e-06
0.000148879
2.6293e-06
0.00014855
2.1514e-06
0.000148253
1.67688e-06
0.000147992
1.43161e-06
0.000147753
1.3664e-06
0.000147525
1.38347e-06
0.000147301
1.42197e-06
0.000147078
1.45802e-06
0.000146854
1.48657e-06
0.000146628
1.509e-06
0.000146401
1.52774e-06
0.000146173
1.54458e-06
0.000145943
1.56059e-06
0.000145711
1.5763e-06
0.000145478
1.59194e-06
0.000145243
1.6076e-06
0.000145006
1.62321e-06
0.000144768
1.63865e-06
0.000144528
1.65368e-06
0.000144286
1.66802e-06
0.000144042
1.68132e-06
0.000143798
1.69329e-06
0.000143552
1.70363e-06
0.000143305
1.71212e-06
0.000143057
1.7186e-06
0.000142808
1.72299e-06
0.000142559
1.72524e-06
0.000142309
1.72543e-06
0.000142059
1.72368e-06
0.00014181
1.7202e-06
0.000141561
1.71522e-06
0.000141312
1.70902e-06
0.000141064
1.70191e-06
0.000140816
1.69421e-06
0.00014057
1.68621e-06
0.000140324
1.67822e-06
0.00014008
1.67051e-06
0.000139836
1.66334e-06
0.000139594
1.65692e-06
0.000139352
1.65146e-06
0.000139112
1.64711e-06
0.000138873
1.64399e-06
0.000138635
1.64219e-06
0.000138398
1.64177e-06
0.000138162
1.64278e-06
0.000137927
1.64525e-06
0.000137694
1.64923e-06
0.000137461
1.65477e-06
0.000137229
1.66197e-06
0.000136998
1.67098e-06
0.000136769
1.68202e-06
0.00013654
1.69541e-06
0.000136312
1.71158e-06
0.000136085
1.73108e-06
0.000135859
1.75463e-06
0.000135633
1.78309e-06
0.000135409
1.81754e-06
0.000135185
1.85923e-06
0.000134962
1.90963e-06
0.00013474
1.97049e-06
0.000134521
2.04379e-06
0.000134304
2.13183e-06
0.000134091
2.2372e-06
0.000133885
2.36279e-06
0.000133689
2.51179e-06
0.000133508
2.68761e-06
0.000133349
2.89379e-06
0.000133221
3.13379e-06
0.000133139
3.41067e-06
0.000133119
3.72662e-06
0.000133186
4.08225e-06
0.000133368
4.47565e-06
0.000133701
4.90105e-06
0.000134227
5.34728e-06
0.000134988
5.796e-06
0.000136023
6.22e-06
0.000137353
6.58261e-06
0.000138968
6.8393e-06
6.94405e-06
0.00014081
0.000159933
1.32771e-06
0.000159734
2.68134e-06
0.000159427
2.93632e-06
0.000159089
2.48925e-06
0.000158772
1.99478e-06
0.000158486
1.71723e-06
0.000158225
1.62704e-06
0.000157979
1.62951e-06
0.00015774
1.66095e-06
0.000157504
1.69421e-06
0.000157269
1.72211e-06
0.000157033
1.74494e-06
0.000156796
1.76456e-06
0.000156558
1.78255e-06
0.000156319
1.79986e-06
0.000156078
1.81699e-06
0.000155836
1.83413e-06
0.000155592
1.85134e-06
0.000155347
1.86854e-06
0.0001551
1.88557e-06
0.000154852
1.90219e-06
0.000154602
1.91807e-06
0.000154351
1.93288e-06
0.000154098
1.94626e-06
0.000153844
1.95792e-06
0.000153589
1.96762e-06
0.000153333
1.9752e-06
0.000153076
1.98053e-06
0.000152819
1.9836e-06
0.000152561
1.98445e-06
0.000152303
1.98323e-06
0.000152045
1.98012e-06
0.000151786
1.97539e-06
0.000151528
1.96932e-06
0.00015127
1.96222e-06
0.000151013
1.95441e-06
0.000150757
1.94623e-06
0.000150501
1.93796e-06
0.000150246
1.92991e-06
0.000149992
1.92234e-06
0.000149739
1.91548e-06
0.000149487
1.90953e-06
0.000149237
1.90466e-06
0.000148987
1.90098e-06
0.000148739
1.89857e-06
0.000148493
1.8975e-06
0.000148248
1.89781e-06
0.000148004
1.89952e-06
0.000147762
1.90266e-06
0.000147522
1.90728e-06
0.000147284
1.91346e-06
0.000147048
1.92133e-06
0.000146814
1.93111e-06
0.000146582
1.94309e-06
0.000146353
1.95767e-06
0.000146126
1.97539e-06
0.000145902
1.99691e-06
0.000145682
2.02303e-06
0.000145465
2.0547e-06
0.000145252
2.09303e-06
0.000145044
2.13931e-06
0.000144842
2.19496e-06
0.000144648
2.2616e-06
0.000144463
2.34096e-06
0.000144289
2.43491e-06
0.000144132
2.54542e-06
0.000143995
2.67442e-06
0.000143885
2.82377e-06
0.000143811
2.99505e-06
0.000143783
3.18933e-06
0.000143815
3.40683e-06
0.000143923
3.64654e-06
0.000144128
3.90568e-06
0.000144453
4.17908e-06
0.000144925
4.45852e-06
0.00014557
4.73214e-06
0.000146411
4.98403e-06
0.000147467
5.19433e-06
0.000148739
5.34017e-06
0.000150211
5.39788e-06
5.34695e-06
0.000151838
0.00017116
1.35613e-06
0.000170992
2.84858e-06
0.000170702
3.22654e-06
0.000170361
2.8305e-06
0.000170026
2.32951e-06
0.000169719
2.02409e-06
0.000169439
1.90793e-06
0.000169175
1.89307e-06
0.000168921
1.91479e-06
0.000168672
1.94324e-06
0.000168425
1.96912e-06
0.000168179
1.99139e-06
0.000167932
2.01126e-06
0.000167685
2.02994e-06
0.000167436
2.04821e-06
0.000167187
2.06647e-06
0.000166936
2.08488e-06
0.000166684
2.10343e-06
0.000166431
2.12203e-06
0.000166176
2.14049e-06
0.00016592
2.15855e-06
0.000165662
2.17586e-06
0.000165403
2.19205e-06
0.000165143
2.20679e-06
0.000164882
2.21974e-06
0.000164619
2.23067e-06
0.000164356
2.23937e-06
0.000164091
2.24576e-06
0.000163826
2.24978e-06
0.00016356
2.25148e-06
0.000163294
2.251e-06
0.000163027
2.24852e-06
0.00016276
2.2443e-06
0.000162493
2.23861e-06
0.000162227
2.23178e-06
0.00016196
2.22413e-06
0.000161694
2.21596e-06
0.000161428
2.20761e-06
0.000161164
2.19936e-06
0.0001609
2.19146e-06
0.000160637
2.18417e-06
0.000160376
2.17768e-06
0.000160115
2.17214e-06
0.000159857
2.16767e-06
0.0001596
2.16435e-06
0.000159345
2.16222e-06
0.000159092
2.16131e-06
0.000158841
2.16162e-06
0.000158593
2.16317e-06
0.000158347
2.16597e-06
0.000158105
2.17008e-06
0.000157865
2.17561e-06
0.00015763
2.18274e-06
0.000157398
2.19171e-06
0.00015717
2.20288e-06
0.000156948
2.21672e-06
0.00015673
2.23378e-06
0.000156519
2.25475e-06
0.000156315
2.28041e-06
0.000156118
2.31165e-06
0.000155931
2.34946e-06
0.000155755
2.39491e-06
0.000155592
2.44909e-06
0.000155445
2.51315e-06
0.000155318
2.58817e-06
0.000155215
2.67517e-06
0.000155141
2.77493e-06
0.000155105
2.88793e-06
0.000155114
3.01417e-06
0.00015518
3.15295e-06
0.000155313
3.30262e-06
0.000155529
3.46035e-06
0.000155843
3.62176e-06
0.000156272
3.78068e-06
0.000156832
3.92898e-06
0.000157539
4.05648e-06
0.000158403
4.15129e-06
0.000159428
4.20041e-06
0.000160609
4.19103e-06
0.000161927
4.11212e-06
3.95664e-06
0.000163349
0.000183166
1.36883e-06
0.000183026
2.98911e-06
0.000182753
3.49947e-06
0.000182412
3.17096e-06
0.000182066
2.67619e-06
0.000181741
2.34855e-06
0.000181442
2.207e-06
0.000181162
2.17319e-06
0.000180894
2.18312e-06
0.000180632
2.205e-06
0.000180374
2.22752e-06
0.000180117
2.2483e-06
0.00017986
2.26773e-06
0.000179604
2.28659e-06
0.000179346
2.30543e-06
0.000179088
2.32452e-06
0.000178829
2.34392e-06
0.000178569
2.3636e-06
0.000178308
2.38341e-06
0.000178046
2.40313e-06
0.000177782
2.42248e-06
0.000177517
2.44108e-06
0.000177251
2.45857e-06
0.000176983
2.47458e-06
0.000176715
2.4888e-06
0.000176445
2.50095e-06
0.000176174
2.51084e-06
0.000175902
2.51836e-06
0.00017563
2.52346e-06
0.000175356
2.52618e-06
0.000175082
2.52663e-06
0.000174807
2.525e-06
0.000174532
2.52151e-06
0.000174257
2.51644e-06
0.000173982
2.51009e-06
0.000173706
2.50277e-06
0.000173431
2.49479e-06
0.000173157
2.48646e-06
0.000172883
2.47806e-06
0.00017261
2.46985e-06
0.000172339
2.46205e-06
0.000172068
2.45486e-06
0.0001718
2.44841e-06
0.000171533
2.44282e-06
0.000171269
2.43814e-06
0.000171007
2.43439e-06
0.000170747
2.43158e-06
0.000170491
2.42968e-06
0.000170239
2.42867e-06
0.00016999
2.42855e-06
0.000169745
2.42932e-06
0.000169506
2.43105e-06
0.000169271
2.43386e-06
0.000169043
2.43794e-06
0.000168821
2.44357e-06
0.000168606
2.45109e-06
0.0001684
2.46095e-06
0.000168202
2.47365e-06
0.000168015
2.48977e-06
0.00016784
2.50993e-06
0.000167679
2.53477e-06
0.000167534
2.56494e-06
0.000167408
2.60105e-06
0.000167304
2.64361e-06
0.000167227
2.693e-06
0.00016718
2.74938e-06
0.000167171
2.81261e-06
0.000167206
2.88214e-06
0.000167294
2.95686e-06
0.000167442
3.03501e-06
0.000167661
3.11401e-06
0.000167963
3.19029e-06
0.000168357
3.25922e-06
0.000168855
3.31504e-06
0.000169465
3.35093e-06
0.000170195
3.35927e-06
0.000171047
3.33208e-06
0.000172019
3.2618e-06
0.000173101
3.14229e-06
0.000174276
2.96989e-06
2.74447e-06
0.000175522
0.000196008
1.37079e-06
0.000195889
3.10784e-06
0.000195633
3.75567e-06
0.000195297
3.50734e-06
0.000194943
3.03029e-06
0.000194604
2.68688e-06
0.000194289
2.52184e-06
0.000193994
2.46854e-06
0.000193712
2.4653e-06
0.000193438
2.47916e-06
0.000193168
2.49714e-06
0.000192901
2.5155e-06
0.000192635
2.53379e-06
0.000192369
2.5523e-06
0.000192103
2.5713e-06
0.000191837
2.59088e-06
0.00019157
2.61102e-06
0.000191302
2.6316e-06
0.000191033
2.65243e-06
0.000190763
2.67324e-06
0.000190492
2.69373e-06
0.00019022
2.7135e-06
0.000189947
2.73218e-06
0.000189672
2.74941e-06
0.000189397
2.76485e-06
0.00018912
2.77822e-06
0.000188842
2.78934e-06
0.000188563
2.79807e-06
0.000188283
2.80436e-06
0.000188003
2.80823e-06
0.000187721
2.80977e-06
0.000187439
2.80914e-06
0.000187156
2.80655e-06
0.000186873
2.80225e-06
0.00018659
2.79651e-06
0.000186306
2.78963e-06
0.000186023
2.7819e-06
0.000185741
2.77361e-06
0.000185459
2.76501e-06
0.000185178
2.75636e-06
0.000184899
2.74786e-06
0.000184621
2.73969e-06
0.000184346
2.73197e-06
0.000184073
2.72477e-06
0.000183802
2.71813e-06
0.000183535
2.71204e-06
0.000183272
2.70648e-06
0.000183013
2.70137e-06
0.000182759
2.69665e-06
0.000182509
2.69227e-06
0.000182266
2.6882e-06
0.000182029
2.68443e-06
0.000181799
2.68102e-06
0.000181578
2.67808e-06
0.000181365
2.67578e-06
0.000181163
2.67434e-06
0.000180971
2.67404e-06
0.000180792
2.67519e-06
0.000180627
2.67814e-06
0.000180478
2.6832e-06
0.000180348
2.69069e-06
0.000180238
2.70084e-06
0.000180153
2.7138e-06
0.000180094
2.72954e-06
0.000180068
2.74785e-06
0.000180079
2.76827e-06
0.000180131
2.78999e-06
0.000180232
2.81181e-06
0.000180388
2.83204e-06
0.000180607
2.84848e-06
0.000180895
2.85828e-06
0.00018126
2.85796e-06
0.000181709
2.8434e-06
0.000182248
2.80991e-06
0.00018288
2.75242e-06
0.000183608
2.66576e-06
0.000184429
2.54519e-06
0.000185339
2.38697e-06
0.000186327
2.18916e-06
0.000187379
1.95225e-06
1.67962e-06
0.000188479
0.000209744
1.3662e-06
0.000209642
3.20963e-06
0.000209401
3.99643e-06
0.000209071
3.83733e-06
0.000208714
3.38793e-06
0.000208365
3.03542e-06
0.000208037
2.84982e-06
0.000207728
2.77748e-06
0.000207433
2.76036e-06
0.000207147
2.76519e-06
0.000206867
2.77761e-06
0.00020659
2.79271e-06
0.000206314
2.80919e-06
0.00020604
2.82682e-06
0.000205766
2.84556e-06
0.000205491
2.86531e-06
0.000205216
2.88591e-06
0.000204941
2.90717e-06
0.000204665
2.92882e-06
0.000204387
2.95056e-06
0.000204109
2.97204e-06
0.00020383
2.99288e-06
0.00020355
3.01266e-06
0.000203269
3.03104e-06
0.000202986
3.04766e-06
0.000202703
3.06227e-06
0.000202418
3.07464e-06
0.000202133
3.08463e-06
0.000201846
3.09217e-06
0.000201559
3.09726e-06
0.00020127
3.09998e-06
0.000200981
3.10044e-06
0.000200691
3.09882e-06
0.0002004
3.09534e-06
0.00020011
3.09025e-06
0.000199819
3.08381e-06
0.000199529
3.07626e-06
0.00019924
3.06789e-06
0.000198951
3.05892e-06
0.000198664
3.04959e-06
0.000198379
3.04006e-06
0.000198095
3.03048e-06
0.000197815
3.02094e-06
0.000197537
3.01149e-06
0.000197264
3.00213e-06
0.000196994
2.9928e-06
0.000196729
2.98343e-06
0.00019647
2.97391e-06
0.000196216
2.96413e-06
0.00019597
2.95397e-06
0.000195731
2.94334e-06
0.0001955
2.93218e-06
0.000195279
2.92047e-06
0.000195068
2.9082e-06
0.000194869
2.89544e-06
0.000194683
2.88226e-06
0.00019451
2.86879e-06
0.000194354
2.85513e-06
0.000194215
2.84138e-06
0.000194096
2.82759e-06
0.000194
2.81376e-06
0.000193928
2.79977e-06
0.000193885
2.78539e-06
0.000193873
2.77018e-06
0.000193898
2.75354e-06
0.000193962
2.73457e-06
0.000194071
2.71213e-06
0.00019423
2.68471e-06
0.000194444
2.65046e-06
0.000194719
2.60717e-06
0.000195059
2.55222e-06
0.000195468
2.48264e-06
0.000195951
2.39518e-06
0.00019651
2.28638e-06
0.000197145
2.15284e-06
0.000197855
1.99144e-06
0.000198636
1.79976e-06
0.000199483
1.57664e-06
0.000200386
1.32269e-06
0.000201334
1.04056e-06
7.35416e-07
0.000202315
0.000224438
1.35841e-06
0.000224349
3.29905e-06
0.000224122
4.22352e-06
0.0002238
4.15955e-06
0.000223442
3.74592e-06
0.000223086
3.39083e-06
0.000222748
3.18827e-06
0.000222427
3.09815e-06
0.00022212
3.06711e-06
0.000221823
3.06228e-06
0.000221533
3.06838e-06
0.000221246
3.0795e-06
0.000220962
3.09356e-06
0.000220679
3.10981e-06
0.000220396
3.12789e-06
0.000220114
3.14747e-06
0.000219832
3.16828e-06
0.000219549
3.18999e-06
0.000219266
3.21228e-06
0.000218982
3.2348e-06
0.000218697
3.25715e-06
0.000218411
3.27893e-06
0.000218124
3.29974e-06
0.000217836
3.31921e-06
0.000217548
3.33699e-06
0.000217258
3.3528e-06
0.000216967
3.36641e-06
0.000216675
3.37767e-06
0.000216382
3.38648e-06
0.000216087
3.39281e-06
0.000215792
3.3967e-06
0.000215497
3.39824e-06
0.0002152
3.39756e-06
0.000214904
3.39484e-06
0.000214607
3.39029e-06
0.00021431
3.38412e-06
0.000214014
3.37657e-06
0.000213719
3.36786e-06
0.000213426
3.35819e-06
0.000213134
3.34776e-06
0.000212844
3.33671e-06
0.000212558
3.32513e-06
0.000212274
3.31309e-06
0.000211995
3.30057e-06
0.00021172
3.28753e-06
0.000211451
3.27387e-06
0.000211187
3.25946e-06
0.00021093
3.24415e-06
0.000210681
3.22776e-06
0.000210441
3.21013e-06
0.00021021
3.1911e-06
0.00020999
3.17052e-06
0.000209781
3.1483e-06
0.000209585
3.12433e-06
0.000209403
3.09856e-06
0.000209236
3.07093e-06
0.000209087
3.04138e-06
0.000208957
3.00985e-06
0.000208848
2.97621e-06
0.000208761
2.94029e-06
0.000208701
2.90183e-06
0.000208669
2.86045e-06
0.000208668
2.81564e-06
0.000208701
2.76674e-06
0.000208773
2.71288e-06
0.000208886
2.653e-06
0.000209045
2.58584e-06
0.000209253
2.50988e-06
0.000209514
2.42341e-06
0.000209831
2.32446e-06
0.000210208
2.21091e-06
0.000210645
2.08048e-06
0.000211146
1.93084e-06
0.000211709
1.75968e-06
0.000212333
1.56495e-06
0.000213017
1.34508e-06
0.000213755
1.09928e-06
0.000214541
8.27914e-07
0.000215369
5.33108e-07
0.000216228
2.18925e-07
-1.08675e-07
0.00021711
0.000240159
1.35001e-06
0.000240078
3.38012e-06
0.000239863
4.43901e-06
0.000239549
4.47333e-06
0.000239193
4.10177e-06
0.000238834
3.75013e-06
0.000238488
3.53454e-06
0.000238157
3.42852e-06
0.00023784
3.38409e-06
0.000237533
3.36939e-06
0.000237233
3.36869e-06
0.000236937
3.37527e-06
0.000236644
3.38639e-06
0.000236353
3.40083e-06
0.000236063
3.41787e-06
0.000235774
3.43698e-06
0.000235485
3.45773e-06
0.000235195
3.47969e-06
0.000234905
3.50244e-06
0.000234614
3.52558e-06
0.000234323
3.54868e-06
0.000234031
3.57132e-06
0.000233738
3.59307e-06
0.000233444
3.61356e-06
0.000233149
3.63244e-06
0.000232853
3.64941e-06
0.000232556
3.66422e-06
0.000232258
3.6767e-06
0.000231959
3.68672e-06
0.000231659
3.69422e-06
0.000231358
3.69918e-06
0.000231057
3.70167e-06
0.000230755
3.70176e-06
0.000230454
3.69959e-06
0.000230152
3.69532e-06
0.000229851
3.68914e-06
0.000229551
3.68122e-06
0.000229252
3.67175e-06
0.000228955
3.6609e-06
0.000228661
3.6488e-06
0.000228369
3.63555e-06
0.000228081
3.62121e-06
0.000227797
3.60577e-06
0.000227519
3.58919e-06
0.000227246
3.57135e-06
0.00022698
3.55211e-06
0.000226721
3.53127e-06
0.00022647
3.50864e-06
0.000226229
3.48399e-06
0.000225998
3.45708e-06
0.000225779
3.4277e-06
0.000225573
3.39564e-06
0.00022538
3.36071e-06
0.000225202
3.32272e-06
0.000225041
3.28149e-06
0.000224898
3.23686e-06
0.000224775
3.18862e-06
0.000224674
3.13654e-06
0.000224596
3.08035e-06
0.000224544
3.01968e-06
0.00022452
2.95412e-06
0.000224526
2.88311e-06
0.000224566
2.80601e-06
0.000224642
2.72202e-06
0.000224757
2.63023e-06
0.000224913
2.52957e-06
0.000225114
2.41884e-06
0.000225361
2.29672e-06
0.000225658
2.16175e-06
0.000226005
2.01242e-06
0.000226405
1.84715e-06
0.000226858
1.66435e-06
0.000227364
1.4625e-06
0.000227921
1.24028e-06
0.000228527
9.96646e-07
0.000229179
7.31075e-07
0.000229873
4.44109e-07
0.000230603
1.36564e-07
0.000231363
-1.87878e-07
0.000232146
-5.24812e-07
-8.68012e-07
0.000232945
0.000256979
1.34286e-06
0.000256903
3.45624e-06
0.000256697
4.645e-06
0.000256392
4.77855e-06
0.00025604
4.45364e-06
0.00025568
4.11069e-06
0.000255328
3.88606e-06
0.00025499
3.76645e-06
0.000254665
3.70959e-06
0.000254349