/*--------------------------------*- C++ -*----------------------------------*\
| =========                 |                                                 |
| \\      /  F ield         | OpenFOAM: The Open Source CFD Toolbox           |
|  \\    /   O peration     | Version:  4.1                                   |
|   \\  /    A nd           | Web:      www.OpenFOAM.org                      |
|    \\/     M anipulation  |                                                 |
\*---------------------------------------------------------------------------*/
FoamFile
{
    version     2.0;
    format      ascii;
    class       volScalarField;
    location    "0.4";
    object      gradTx;
}
// * * * * * * * * * * * * * * * * * * * * * * * * * * * * * * * * * * * * * //

dimensions      [0 -1 0 1 0 0 0];

internalField   nonuniform List<scalar> 
512
(
0.00864552
0.0243574
0.0360194
0.0425705
0.0443599
0.0425175
0.0383681
0.0331079
0.0275674
0.0222954
0.0175785
0.0135168
0.0100961
0.00723866
0.00483375
0.00275663
0.000878676
-0.000927869
-0.00278778
-0.00482092
-0.0071377
-0.00982849
-0.0129433
-0.0164589
-0.0202315
-0.0239376
-0.027019
-0.0286677
-0.0279151
-0.0238952
-0.0162967
-0.00580747
0.0263329
0.0740935
0.109345
0.128919
0.134002
0.128144
0.115402
0.0994043
0.0826494
0.066762
0.0525833
0.0403986
0.0301542
0.0216079
0.0144231
0.00822269
0.00261957
-0.00277004
-0.00832095
-0.014394
-0.021323
-0.0293841
-0.0387358
-0.0493201
-0.0607202
-0.0719795
-0.0814267
-0.0866156
-0.0845733
-0.0725898
-0.0496181
-0.0177054
0.0452494
0.126987
0.186618
0.218941
0.226428
0.215534
0.193311
0.165926
0.137556
0.110843
0.0871237
0.0668213
0.0498076
0.0356523
0.0237777
0.0135471
0.0043112
-0.00457127
-0.0137265
-0.0237594
-0.0352353
-0.0486313
-0.0642387
-0.0820006
-0.101272
-0.120507
-0.136934
-0.146407
-0.14375
-0.124058
-0.0851879
-0.0304793
0.0663536
0.185463
0.270766
0.315251
0.323539
0.305824
0.272611
0.232762
0.192119
0.154243
0.120866
0.0924651
0.0687798
0.0491522
0.0327404
0.0186357
0.00592128
-0.00630335
-0.0189174
-0.0327748
-0.0486847
-0.0673496
-0.0892347
-0.114344
-0.141881
-0.169792
-0.194242
-0.209294
-0.207241
-0.180365
-0.124729
-0.0448103
0.0908431
0.252477
0.365193
0.420717
0.427288
0.400085
0.353713
0.299897
0.246088
0.196612
0.153441
0.116991
0.0867849
0.0618844
0.0411529
0.0233943
0.00741828
-0.00793683
-0.0238042
-0.0412922
-0.0614693
-0.0852967
-0.113469
-0.146136
-0.182466
-0.220021
-0.253985
-0.276543
-0.277016
-0.243918
-0.170355
-0.0615576
0.120316
0.331835
0.474031
0.538558
0.539669
0.499271
0.436863
0.367166
0.299098
0.237522
0.184435
0.140034
0.103524
0.0736207
0.0488561
0.0277298
0.00877183
-0.00944079
-0.0282946
-0.0491567
-0.0733721
-0.102201
-0.136639
-0.177086
-0.222834
-0.27125
-0.316692
-0.349427
-0.355284
-0.317661
-0.224812
-0.0818774
0.157021
0.428671
0.602444
0.672425
0.662666
0.60413
0.522069
0.434201
0.350642
0.276453
0.213377
0.161201
0.118686
0.0841287
0.0556904
0.0315502
0.00995305
-0.0107828
-0.0322935
-0.0562062
-0.0841587
-0.117756
-0.158376
-0.206801
-0.262643
-0.32335
-0.382713
-0.429169
-0.444545
-0.405299
-0.291828
-0.107405
0.204262
0.55015
0.757012
0.826436
0.798148
0.715085
0.609005
0.500374
0.400028
0.312773
0.239736
0.180064
0.131946
0.0931728
0.0614977
0.0347659
0.010935
-0.0119295
-0.0357045
-0.0622731
-0.0935778
-0.131617
-0.178245
-0.234767
-0.301367
-0.375936
-0.452123
-0.516848
-0.54761
-0.511606
-0.376646
-0.140548
0.267094
0.706581
0.946203
1.00513
0.947665
0.832057
0.6969
0.564733
0.446358
0.345729
0.262913
0.196168
0.142968
0.100517
0.0661225
0.037291
0.0116931
-0.0128468
-0.0384313
-0.0671869
-0.101363
-0.143402
-0.195735
-0.260336
-0.338246
-0.428289
-0.524585
-0.61321
-0.667544
-0.642793
-0.486845
-0.184976
0.353539
0.913192
1.18089
1.21324
1.1121
0.954229
0.78441
0.625942
0.488501
0.374447
0.282251
0.209026
0.151412
0.105928
0.0694145
0.0390452
0.0122058
-0.0135017
-0.0403813
-0.0707801
-0.107237
-0.152692
-0.210265
-0.282714
-0.372261
-0.479274
-0.599177
-0.718369
-0.807463
-0.806955
-0.633656
-0.246477
0.476812
1.19302
1.47478
1.45511
1.29115
1.07975
0.869482
0.682233
0.525079
0.397935
0.29704
0.218135
0.156942
0.109184
0.0712323
0.0399565
0.0124551
-0.0138625
-0.0414693
-0.0728963
-0.110922
-0.159038
-0.221193
-0.300967
-0.402094
-0.527253
-0.674186
-0.83131
-0.970037
-1.01454
-0.834094
-0.334481
0.65949
1.5817
1.84447
1.73355
1.48253
1.20543
0.949235
0.731377
0.554466
0.415121
0.30654
0.22298
0.159237
0.11008
0.0714458
0.0399653
0.0124287
-0.0139006
-0.0416213
-0.073403
-0.112149
-0.161967
-0.227841
-0.314045
-0.426121
-0.57003
-0.746915
-0.949147
-1.15647
-1.27862
-1.11451
-0.464882
0.941534
2.13556
2.30805
2.04767
1.68099
1.32638
1.01989
0.770705
0.574809
0.424898
0.31001
0.223046
0.158019
0.108442
0.0699381
0.0390307
0.0121213
-0.0135907
-0.0407783
-0.0722108
-0.110676
-0.160981
-0.229541
-0.32083
-0.442408
-0.604827
-0.813607
-1.06605
-1.36457
-1.61459
-1.51651
-0.665391
1.39618
2.94525
2.88035
2.38912
1.8771
1.4359
1.07675
0.797173
0.584037
0.426227
0.306742
0.217814
0.153076
0.104137
0.0666003
0.03714
0.0115355
-0.0129118
-0.0388951
-0.0693041
-0.106313
-0.155532
-0.2257
-0.320228
-0.44872
-0.628323
-0.869716
-1.17183
-1.58523
-2.03796
-2.10705
-0.985931
2.16213
4.15909
3.55982
2.73658
2.05627
1.52559
1.11431
0.807529
0.579839
0.418298
0.296085
0.206722
0.144322
0.0970816
0.0613113
0.0343276
0.0106807
-0.0118498
-0.0359272
-0.0647921
-0.0989698
-0.144951
-0.215916
-0.311327
-0.442501
-0.636684
-0.911019
-1.25022
-1.79656
-2.55769
-2.99552
-1.51936
3.51039
6.02287
4.2961
3.04919
2.19889
1.58619
1.1264
0.798649
0.559535
0.400876
0.277473
0.18908
0.131919
0.0872572
0.0538916
0.0307221
0.00956609
-0.0104021
-0.0317841
-0.0589967
-0.0887464
-0.128227
-0.200167
-0.293685
-0.42079
-0.625347
-0.936519
-1.2773
-1.95477
-3.15884
-4.36306
-2.44371
)
;

boundaryField
{
    left
    {
        type            calculated;
        value           uniform 0;
    }
    right
    {
        type            calculated;
        value           uniform 0;
    }
    interface
    {
        type            calculated;
        value           nonuniform List<scalar> 
32
(
3.51039
6.02287
4.2961
3.04919
2.19889
1.58619
1.1264
0.798649
0.559535
0.400876
0.277473
0.18908
0.131919
0.0872572
0.0538916
0.0307221
0.00956609
-0.0104021
-0.0317841
-0.0589967
-0.0887464
-0.128227
-0.200167
-0.293685
-0.42079
-0.625347
-0.936519
-1.2773
-1.95477
-3.15884
-4.36306
-2.44371
)
;
    }
    bottom
    {
        type            calculated;
        value           nonuniform List<scalar> 
32
(
0.00864552
0.0243574
0.0360194
0.0425705
0.0443599
0.0425175
0.0383681
0.0331079
0.0275674
0.0222954
0.0175785
0.0135168
0.0100961
0.00723866
0.00483375
0.00275663
0.000878676
-0.000927869
-0.00278778
-0.00482092
-0.0071377
-0.00982849
-0.0129433
-0.0164589
-0.0202315
-0.0239376
-0.027019
-0.0286677
-0.0279151
-0.0238952
-0.0162967
-0.00580747
)
;
    }
    defaultFaces
    {
        type            empty;
    }
}


// ************************************************************************* //
