/*--------------------------------*- C++ -*----------------------------------*\
| =========                 |                                                 |
| \\      /  F ield         | OpenFOAM: The Open Source CFD Toolbox           |
|  \\    /   O peration     | Version:  4.1                                   |
|   \\  /    A nd           | Web:      www.OpenFOAM.org                      |
|    \\/     M anipulation  |                                                 |
\*---------------------------------------------------------------------------*/
FoamFile
{
    version     2.0;
    format      ascii;
    class       surfaceScalarField;
    location    "0.8";
    object      phi;
}
// * * * * * * * * * * * * * * * * * * * * * * * * * * * * * * * * * * * * * //

dimensions      [1 0 -1 0 0 0 0];

internalField   nonuniform List<scalar> 
23692
(
1.16358e-05
-8.21014e-10
1.16363e-05
-5.64984e-10
1.16354e-05
9.77273e-10
1.16317e-05
3.69881e-09
1.16246e-05
7.07375e-09
1.16143e-05
1.03836e-08
1.16013e-05
1.30017e-08
1.15868e-05
1.46013e-08
1.15716e-05
1.51927e-08
1.15567e-05
1.50162e-08
1.15423e-05
1.43927e-08
1.15288e-05
1.36022e-08
1.15161e-05
1.28295e-08
1.1504e-05
1.2162e-08
1.14925e-05
1.16164e-08
1.14814e-05
1.11716e-08
1.14708e-05
1.07925e-08
1.14605e-05
1.04473e-08
1.14506e-05
1.01117e-08
1.1441e-05
9.77044e-09
1.14318e-05
9.41589e-09
1.14229e-05
9.0447e-09
1.14145e-05
8.65681e-09
1.14065e-05
8.25344e-09
1.1399e-05
7.8361e-09
1.13919e-05
7.40699e-09
1.13852e-05
6.96811e-09
1.1379e-05
6.52131e-09
1.13733e-05
6.06907e-09
1.13681e-05
5.61371e-09
1.13633e-05
5.158e-09
1.13591e-05
4.70449e-09
1.13553e-05
4.25636e-09
1.13519e-05
3.81695e-09
1.1349e-05
3.38953e-09
1.13466e-05
2.97774e-09
1.13445e-05
2.58558e-09
1.13428e-05
2.21682e-09
1.13415e-05
1.87582e-09
1.13406e-05
1.56695e-09
1.13399e-05
1.29469e-09
1.13394e-05
1.06413e-09
1.13392e-05
8.80155e-10
1.13391e-05
7.48505e-10
1.13391e-05
6.74955e-10
1.13391e-05
6.66182e-10
1.13391e-05
7.29288e-10
1.1339e-05
8.72073e-10
1.13386e-05
1.10341e-09
1.13379e-05
1.43311e-09
1.13368e-05
1.87263e-09
1.13351e-05
2.43455e-09
1.13327e-05
3.13354e-09
1.13295e-05
3.98655e-09
1.13253e-05
5.01337e-09
1.13199e-05
6.23707e-09
1.1313e-05
7.68502e-09
1.13044e-05
9.38964e-09
1.12938e-05
1.13899e-08
1.12809e-05
1.37331e-08
1.12652e-05
1.64766e-08
1.12464e-05
1.96912e-08
1.12237e-05
2.34655e-08
1.11966e-05
2.791e-08
1.11643e-05
3.31665e-08
1.11257e-05
3.94174e-08
1.10796e-05
4.69012e-08
1.10245e-05
5.5935e-08
1.09584e-05
6.69471e-08
1.08786e-05
8.05261e-08
1.0782e-05
9.74963e-08
1.06637e-05
1.19036e-07
1.05177e-05
1.46861e-07
1.03349e-05
1.83529e-07
1.01028e-05
2.32919e-07
9.80257e-06
3.01026e-07
9.40615e-06
3.97199e-07
8.87067e-06
5.36245e-07
8.12815e-06
7.43296e-07
7.06316e-06
1.06575e-06
1.62988e-06
5.43403e-06
1.24508e-05
-1.71017e-09
1.24515e-05
-1.20456e-09
1.24505e-05
1.96504e-09
1.24466e-05
7.58017e-09
1.24392e-05
1.45559e-08
1.24282e-05
2.14067e-08
1.24144e-05
2.68351e-08
1.23989e-05
3.01622e-08
1.23827e-05
3.14042e-08
1.23667e-05
3.10563e-08
1.23514e-05
2.97787e-08
1.23369e-05
2.81518e-08
1.23233e-05
2.65581e-08
1.23104e-05
2.5179e-08
1.22981e-05
2.4051e-08
1.22862e-05
2.31301e-08
1.22748e-05
2.23457e-08
1.22638e-05
2.16314e-08
1.22532e-05
2.09371e-08
1.22429e-05
2.02322e-08
1.2233e-05
1.95004e-08
1.22236e-05
1.87352e-08
1.22146e-05
1.7936e-08
1.2206e-05
1.71048e-08
1.21979e-05
1.62457e-08
1.21903e-05
1.53623e-08
1.21831e-05
1.4459e-08
1.21765e-05
1.354e-08
1.21703e-05
1.26103e-08
1.21647e-05
1.16745e-08
1.21595e-05
1.0738e-08
1.21549e-05
9.80665e-09
1.21507e-05
8.88664e-09
1.2147e-05
7.985e-09
1.21439e-05
7.10849e-09
1.21411e-05
6.26478e-09
1.21388e-05
5.46155e-09
1.21369e-05
4.70743e-09
1.21354e-05
4.01101e-09
1.21342e-05
3.38099e-09
1.21333e-05
2.82705e-09
1.21327e-05
2.35895e-09
1.21323e-05
1.98785e-09
1.2132e-05
1.72469e-09
1.21318e-05
1.58205e-09
1.21317e-05
1.57302e-09
1.21314e-05
1.71238e-09
1.2131e-05
2.01653e-09
1.21304e-05
2.50318e-09
1.21295e-05
3.19291e-09
1.2128e-05
4.10867e-09
1.2126e-05
5.27653e-09
1.21232e-05
6.72647e-09
1.21196e-05
8.49307e-09
1.21148e-05
1.06166e-08
1.21088e-05
1.31442e-08
1.21012e-05
1.61311e-08
1.20918e-05
1.96435e-08
1.20803e-05
2.37601e-08
1.20663e-05
2.8576e-08
1.20494e-05
3.42069e-08
1.20292e-05
4.07948e-08
1.2005e-05
4.85158e-08
1.19762e-05
5.75907e-08
1.1942e-05
6.82987e-08
1.19013e-05
8.09979e-08
1.18529e-05
9.61533e-08
1.17953e-05
1.14376e-07
1.17267e-05
1.36483e-07
1.16445e-05
1.63581e-07
1.15457e-05
1.97193e-07
1.14261e-05
2.39447e-07
1.12805e-05
2.93361e-07
1.11016e-05
3.63263e-07
1.08799e-05
4.55409e-07
1.0603e-05
5.78822e-07
1.02548e-05
7.4621e-07
9.81729e-06
9.74589e-07
9.27632e-06
1.28509e-06
8.64853e-06
1.69435e-06
2.15083e-06
8.12839e-06
1.33229e-05
-2.67355e-09
1.33237e-05
-1.94581e-09
1.33228e-05
2.9182e-09
1.33188e-05
1.15753e-08
1.3311e-05
2.23607e-08
1.32995e-05
3.29822e-08
1.32849e-05
4.14277e-08
1.32685e-05
4.66366e-08
1.32513e-05
4.86204e-08
1.32343e-05
4.81356e-08
1.3218e-05
4.61979e-08
1.32025e-05
4.37036e-08
1.31879e-05
4.12473e-08
1.31741e-05
3.91147e-08
1.31609e-05
3.73644e-08
1.31482e-05
3.59324e-08
1.3136e-05
3.47122e-08
1.31242e-05
3.36015e-08
1.31128e-05
3.25244e-08
1.31019e-05
3.14326e-08
1.30913e-05
3.03009e-08
1.30812e-05
2.91194e-08
1.30715e-05
2.78867e-08
1.30623e-05
2.66061e-08
1.30536e-05
2.52829e-08
1.30453e-05
2.39237e-08
1.30376e-05
2.25346e-08
1.30304e-05
2.11228e-08
1.30238e-05
1.96946e-08
1.30176e-05
1.82584e-08
1.3012e-05
1.6822e-08
1.30069e-05
1.53944e-08
1.30023e-05
1.39857e-08
1.29982e-05
1.26061e-08
1.29946e-05
1.12666e-08
1.29915e-05
9.97852e-09
1.29888e-05
8.75426e-09
1.29866e-05
7.60673e-09
1.29847e-05
6.54901e-09
1.29831e-05
5.59537e-09
1.29819e-05
4.75999e-09
1.29809e-05
4.05843e-09
1.29801e-05
3.50714e-09
1.29795e-05
3.12373e-09
1.29789e-05
2.92698e-09
1.29783e-05
2.93742e-09
1.29777e-05
3.1778e-09
1.29769e-05
3.67261e-09
1.29757e-05
4.44981e-09
1.29742e-05
5.54034e-09
1.29722e-05
6.97939e-09
1.29696e-05
8.80679e-09
1.29661e-05
1.10683e-08
1.29617e-05
1.38162e-08
1.29561e-05
1.71116e-08
1.29491e-05
2.10258e-08
1.29405e-05
2.56422e-08
1.293e-05
3.10599e-08
1.29173e-05
3.7397e-08
1.2902e-05
4.47949e-08
1.28838e-05
5.34255e-08
1.2862e-05
6.34981e-08
1.28362e-05
7.52709e-08
1.28056e-05
8.90648e-08
1.27696e-05
1.05283e-07
1.27271e-05
1.24435e-07
1.2677e-05
1.47178e-07
1.2618e-05
1.74359e-07
1.25483e-05
2.07093e-07
1.24659e-05
2.46855e-07
1.23684e-05
2.95623e-07
1.22527e-05
3.56067e-07
1.21152e-05
4.31818e-07
1.19516e-05
5.27801e-07
1.17573e-05
6.50638e-07
1.1528e-05
8.08957e-07
1.12619e-05
1.01321e-06
1.09633e-05
1.27405e-06
1.06522e-05
1.59715e-06
1.03807e-05
1.96671e-06
2.29924e-06
1.02331e-05
1.42562e-05
-3.72198e-09
1.4257e-05
-2.81889e-09
1.42562e-05
3.77423e-09
1.42522e-05
1.55874e-08
1.42442e-05
3.03666e-08
1.42323e-05
4.498e-08
1.42171e-05
5.66639e-08
1.41998e-05
6.39408e-08
1.41817e-05
6.67995e-08
1.41637e-05
6.62518e-08
1.41463e-05
6.36788e-08
1.41297e-05
6.0307e-08
1.41141e-05
5.69575e-08
1.40994e-05
5.40301e-08
1.40852e-05
5.16159e-08
1.40717e-05
4.96338e-08
1.40586e-05
4.7942e-08
1.4046e-05
4.64038e-08
1.40338e-05
4.49154e-08
1.40221e-05
4.34118e-08
1.40108e-05
4.18572e-08
1.39999e-05
4.02378e-08
1.39896e-05
3.85513e-08
1.39797e-05
3.68016e-08
1.39703e-05
3.49961e-08
1.39615e-05
3.3143e-08
1.39531e-05
3.12513e-08
1.39453e-05
2.93298e-08
1.39381e-05
2.73883e-08
1.39314e-05
2.54374e-08
1.39252e-05
2.34883e-08
1.39196e-05
2.15535e-08
1.39145e-05
1.96464e-08
1.39099e-05
1.77809e-08
1.39058e-05
1.59725e-08
1.39021e-05
1.42369e-08
1.38989e-05
1.25907e-08
1.38962e-05
1.10514e-08
1.38938e-05
9.63755e-09
1.38917e-05
8.36775e-09
1.389e-05
7.26191e-09
1.38885e-05
6.34133e-09
1.38871e-05
5.62843e-09
1.38859e-05
5.14709e-09
1.38847e-05
4.92277e-09
1.38835e-05
4.98365e-09
1.38822e-05
5.36029e-09
1.38807e-05
6.08629e-09
1.38788e-05
7.19919e-09
1.38765e-05
8.74103e-09
1.38737e-05
1.07592e-08
1.38701e-05
1.33072e-08
1.38657e-05
1.6446e-08
1.38602e-05
2.02462e-08
1.38535e-05
2.47888e-08
1.38453e-05
3.01683e-08
1.38355e-05
3.64952e-08
1.38236e-05
4.38998e-08
1.38095e-05
5.25362e-08
1.37927e-05
6.25888e-08
1.37728e-05
7.42791e-08
1.37494e-05
8.78756e-08
1.3722e-05
1.03706e-07
1.36899e-05
1.22172e-07
1.36524e-05
1.43775e-07
1.36087e-05
1.69138e-07
1.35578e-05
1.99047e-07
1.34987e-05
2.34502e-07
1.343e-05
2.7678e-07
1.33503e-05
3.27523e-07
1.32581e-05
3.88853e-07
1.31516e-05
4.63514e-07
1.30294e-05
5.55027e-07
1.28903e-05
6.67846e-07
1.27345e-05
8.07411e-07
1.25646e-05
9.79904e-07
1.23875e-05
1.19125e-06
1.22179e-05
1.44455e-06
1.20817e-05
1.73436e-06
1.2014e-05
2.03528e-06
2.28321e-06
1.2031e-05
1.52548e-05
-4.867e-09
1.52558e-05
-3.85998e-09
1.52551e-05
4.4582e-09
1.52513e-05
1.94949e-08
1.52432e-05
3.84133e-08
1.5231e-05
5.72266e-08
1.52154e-05
7.23832e-08
1.51974e-05
8.19516e-08
1.51784e-05
8.58658e-08
1.51593e-05
8.53794e-08
1.51409e-05
8.22363e-08
1.51233e-05
7.80035e-08
1.51066e-05
7.37432e-08
1.50908e-05
6.99857e-08
1.50757e-05
6.6863e-08
1.50612e-05
6.42857e-08
1.50472e-05
6.20808e-08
1.50338e-05
6.00781e-08
1.50208e-05
5.81471e-08
1.50082e-05
5.62036e-08
1.49961e-05
5.42024e-08
1.49845e-05
5.2124e-08
1.49734e-05
4.99643e-08
1.49628e-05
4.77286e-08
1.49528e-05
4.54252e-08
1.49433e-05
4.30644e-08
1.49343e-05
4.06571e-08
1.49258e-05
3.8215e-08
1.49179e-05
3.57507e-08
1.49106e-05
3.32775e-08
1.49038e-05
3.08101e-08
1.48976e-05
2.83642e-08
1.48918e-05
2.59571e-08
1.48866e-05
2.3607e-08
1.48819e-05
2.13332e-08
1.48777e-05
1.9156e-08
1.48738e-05
1.70967e-08
1.48704e-05
1.5178e-08
1.48674e-05
1.34229e-08
1.48647e-05
1.18556e-08
1.48622e-05
1.05017e-08
1.486e-05
9.38803e-09
1.48579e-05
8.54297e-09
1.4856e-05
7.99703e-09
1.4854e-05
7.78285e-09
1.48519e-05
7.93587e-09
1.48497e-05
8.49461e-09
1.48473e-05
9.5018e-09
1.48444e-05
1.10045e-08
1.48411e-05
1.30556e-08
1.48371e-05
1.57141e-08
1.48323e-05
1.90471e-08
1.48267e-05
2.31305e-08
1.48199e-05
2.80512e-08
1.48118e-05
3.39092e-08
1.48022e-05
4.08204e-08
1.47908e-05
4.89193e-08
1.47774e-05
5.83635e-08
1.47617e-05
6.93383e-08
1.47433e-05
8.20633e-08
1.47218e-05
9.67999e-08
1.46969e-05
1.13862e-07
1.4668e-05
1.33626e-07
1.46347e-05
1.56551e-07
1.45964e-05
1.83195e-07
1.45524e-05
2.14242e-07
1.4502e-05
2.50534e-07
1.44444e-05
2.93114e-07
1.4379e-05
3.43272e-07
1.4305e-05
4.02604e-07
1.42218e-05
4.73081e-07
1.41293e-05
5.57109e-07
1.40278e-05
6.57571e-07
1.39189e-05
7.77791e-07
1.3806e-05
9.21343e-07
1.36954e-05
1.09151e-06
1.35976e-05
1.29009e-06
1.3528e-05
1.51515e-06
1.35063e-05
1.75706e-06
1.35496e-05
1.99299e-06
2.18158e-06
1.36522e-05
1.63233e-05
-6.12134e-09
1.63246e-05
-5.11038e-09
1.63242e-05
4.88053e-09
1.63205e-05
2.31527e-08
1.63127e-05
4.63093e-08
1.63004e-05
6.95065e-08
1.62845e-05
8.83804e-08
1.6266e-05
1.00503e-07
1.62462e-05
1.0571e-07
1.62262e-05
1.05465e-07
1.62067e-05
1.01865e-07
1.6188e-05
9.68209e-08
1.61702e-05
9.16519e-08
1.61533e-05
8.70337e-08
1.61371e-05
8.31573e-08
1.61217e-05
7.99343e-08
1.61068e-05
7.71679e-08
1.60924e-05
7.46574e-08
1.60785e-05
7.22468e-08
1.60652e-05
6.98332e-08
1.60523e-05
6.73598e-08
1.60399e-05
6.48012e-08
1.60281e-05
6.21517e-08
1.60167e-05
5.94152e-08
1.6006e-05
5.66016e-08
1.59957e-05
5.37231e-08
1.5986e-05
5.07928e-08
1.59769e-05
4.78249e-08
1.59683e-05
4.48346e-08
1.59603e-05
4.18383e-08
1.59528e-05
3.8854e-08
1.59459e-05
3.59014e-08
1.59395e-05
3.30013e-08
1.59336e-05
3.01764e-08
1.59281e-05
2.74503e-08
1.59232e-05
2.48477e-08
1.59186e-05
2.23949e-08
1.59144e-05
2.01194e-08
1.59106e-05
1.80493e-08
1.59071e-05
1.62144e-08
1.59038e-05
1.46456e-08
1.59007e-05
1.33756e-08
1.58977e-05
1.2439e-08
1.58947e-05
1.18728e-08
1.58917e-05
1.17164e-08
1.58886e-05
1.20126e-08
1.58853e-05
1.2808e-08
1.58816e-05
1.41536e-08
1.58776e-05
1.61061e-08
1.58729e-05
1.87284e-08
1.58676e-05
2.20906e-08
1.58614e-05
2.6272e-08
1.58543e-05
3.13619e-08
1.5846e-05
3.7462e-08
1.58363e-05
4.46886e-08
1.58251e-05
5.31754e-08
1.5812e-05
6.30765e-08
1.57969e-05
7.45709e-08
1.57795e-05
8.78672e-08
1.57595e-05
1.0321e-07
1.57366e-05
1.20886e-07
1.57104e-05
1.41235e-07
1.56805e-05
1.6466e-07
1.56465e-05
1.91641e-07
1.56081e-05
2.22749e-07
1.55649e-05
2.58668e-07
1.55163e-05
3.00218e-07
1.54622e-05
3.48374e-07
1.54023e-05
4.04302e-07
1.53367e-05
4.69374e-07
1.52657e-05
5.45189e-07
1.51904e-05
6.33565e-07
1.51126e-05
7.36485e-07
1.50356e-05
8.55958e-07
1.49643e-05
9.93725e-07
1.49062e-05
1.1507e-06
1.48714e-05
1.32601e-06
1.48721e-05
1.5155e-06
1.49206e-05
1.70968e-06
1.50229e-05
1.89167e-06
2.03689e-06
1.51687e-05
1.74667e-05
-7.49854e-09
1.74682e-05
-6.6141e-09
1.74682e-05
4.94569e-09
1.7465e-05
2.64021e-08
1.74575e-05
5.38385e-08
1.74454e-05
8.15733e-08
1.74295e-05
1.04415e-07
1.74106e-05
1.19391e-07
1.73902e-05
1.26185e-07
1.73694e-05
1.26424e-07
1.73488e-05
1.22534e-07
1.7329e-05
1.16768e-07
1.731e-05
1.10715e-07
1.7292e-05
1.05216e-07
1.72748e-05
1.00541e-07
1.72583e-05
9.6617e-08
1.72424e-05
9.32341e-08
1.72271e-05
9.01671e-08
1.72124e-05
8.72352e-08
1.71982e-05
8.43178e-08
1.71845e-05
8.13456e-08
1.71714e-05
7.8286e-08
1.71587e-05
7.51298e-08
1.71467e-05
7.18808e-08
1.71351e-05
6.85487e-08
1.71242e-05
6.51472e-08
1.71137e-05
6.16916e-08
1.71039e-05
5.81984e-08
1.70946e-05
5.46854e-08
1.70858e-05
5.11727e-08
1.70776e-05
4.76813e-08
1.70699e-05
4.42348e-08
1.70627e-05
4.08581e-08
1.7056e-05
3.75777e-08
1.70498e-05
3.44219e-08
1.7044e-05
3.14205e-08
1.70385e-05
2.86042e-08
1.70335e-05
2.60051e-08
1.70287e-05
2.36571e-08
1.70242e-05
2.15949e-08
1.70199e-05
1.98552e-08
1.70158e-05
1.84762e-08
1.70117e-05
1.74986e-08
1.70076e-05
1.69656e-08
1.70034e-05
1.69232e-08
1.6999e-05
1.74213e-08
1.69943e-05
1.85137e-08
1.69893e-05
2.02597e-08
1.69838e-05
2.27245e-08
1.69776e-05
2.59796e-08
1.69707e-05
3.01054e-08
1.6963e-05
3.51912e-08
1.69541e-05
4.13375e-08
1.69441e-05
4.86581e-08
1.69327e-05
5.72816e-08
1.69197e-05
6.73547e-08
1.69049e-05
7.9045e-08
1.68882e-05
9.25448e-08
1.68692e-05
1.08075e-07
1.68477e-05
1.25893e-07
1.68235e-05
1.46293e-07
1.67964e-05
1.6962e-07
1.6766e-05
1.96273e-07
1.67321e-05
2.26717e-07
1.66946e-05
2.61491e-07
1.66533e-05
3.01221e-07
1.66081e-05
3.46628e-07
1.65592e-05
3.98539e-07
1.65068e-05
4.57887e-07
1.64517e-05
5.25709e-07
1.6395e-05
6.03123e-07
1.63385e-05
6.91276e-07
1.62849e-05
7.91249e-07
1.62382e-05
9.03889e-07
1.62035e-05
1.02953e-06
1.61878e-05
1.16759e-06
1.61991e-05
1.31591e-06
1.62457e-05
1.47003e-06
1.63343e-05
1.62231e-06
1.64655e-05
1.76153e-06
1.87369e-06
1.66299e-05
1.86902e-05
-9.01061e-09
1.8692e-05
-8.41271e-09
1.86924e-05
4.55878e-09
1.86898e-05
2.90822e-08
1.86829e-05
6.07771e-08
1.86713e-05
9.31656e-08
1.86556e-05
1.20221e-07
1.86366e-05
1.38383e-07
1.86158e-05
1.47113e-07
1.85942e-05
1.48141e-07
1.85726e-05
1.44183e-07
1.85517e-05
1.37828e-07
1.85316e-05
1.30942e-07
1.85124e-05
1.24557e-07
1.84941e-05
1.19041e-07
1.84766e-05
1.1436e-07
1.84597e-05
1.10301e-07
1.84435e-05
1.06623e-07
1.84279e-05
1.03124e-07
1.84128e-05
9.96663e-08
1.83983e-05
9.61671e-08
1.83844e-05
9.25862e-08
1.8371e-05
8.89095e-08
1.83581e-05
8.51385e-08
1.83459e-05
8.12835e-08
1.83341e-05
7.73588e-08
1.83229e-05
7.33811e-08
1.83123e-05
6.93694e-08
1.83022e-05
6.53447e-08
1.82927e-05
6.13296e-08
1.82837e-05
5.73492e-08
1.82752e-05
5.34305e-08
1.82671e-05
4.96025e-08
1.82596e-05
4.5896e-08
1.82524e-05
4.23438e-08
1.82457e-05
3.898e-08
1.82393e-05
3.58403e-08
1.82332e-05
3.29619e-08
1.82274e-05
3.03833e-08
1.82218e-05
2.81443e-08
1.82163e-05
2.62873e-08
1.8211e-05
2.48557e-08
1.82056e-05
2.38959e-08
1.82001e-05
2.34569e-08
1.81946e-05
2.3591e-08
1.81887e-05
2.43541e-08
1.81826e-05
2.58071e-08
1.81759e-05
2.80158e-08
1.81688e-05
3.10526e-08
1.8161e-05
3.49967e-08
1.81523e-05
3.99361e-08
1.81428e-05
4.59679e-08
1.81321e-05
5.32009e-08
1.81203e-05
6.17563e-08
1.81071e-05
7.17704e-08
1.80923e-05
8.33967e-08
1.80758e-05
9.68084e-08
1.80574e-05
1.12201e-07
1.8037e-05
1.29798e-07
1.80143e-05
1.4985e-07
1.79893e-05
1.72644e-07
1.79617e-05
1.98504e-07
1.79315e-05
2.27799e-07
1.78986e-05
2.60944e-07
1.7863e-05
2.98405e-07
1.78248e-05
3.40702e-07
1.77844e-05
3.88407e-07
1.77421e-05
4.42138e-07
1.76987e-05
5.02548e-07
1.76554e-05
5.70299e-07
1.76138e-05
6.46022e-07
1.75761e-05
7.30252e-07
1.75454e-05
8.23328e-07
1.75253e-05
9.25251e-07
1.75206e-05
1.03549e-06
1.75367e-05
1.15271e-06
1.75794e-05
1.27449e-06
1.76537e-05
1.39694e-06
1.77627e-05
1.51457e-06
1.79051e-05
1.62032e-06
1.70642e-06
1.80736e-05
1.99994e-05
-1.06678e-08
2.00016e-05
-1.0543e-08
2.00025e-05
3.63674e-09
2.00006e-05
3.1047e-08
1.99945e-05
6.69168e-08
1.99836e-05
1.04029e-07
1.99684e-05
1.35533e-07
1.99496e-05
1.57232e-07
1.99285e-05
1.6829e-07
1.99063e-05
1.70468e-07
1.98839e-05
1.6672e-07
1.98619e-05
1.59951e-07
1.98406e-05
1.52316e-07
1.98203e-05
1.45057e-07
1.98009e-05
1.38669e-07
1.97823e-05
1.33175e-07
1.97644e-05
1.28379e-07
1.97473e-05
1.24033e-07
1.97308e-05
1.19919e-07
1.97149e-05
1.15882e-07
1.96996e-05
1.11828e-07
1.96848e-05
1.07706e-07
1.96706e-05
1.03497e-07
1.9657e-05
9.91986e-08
1.9644e-05
9.48206e-08
1.96315e-05
9.03774e-08
1.96195e-05
8.58874e-08
1.96081e-05
8.13715e-08
1.95972e-05
7.68532e-08
1.95868e-05
7.23586e-08
1.95769e-05
6.79158e-08
1.95675e-05
6.35557e-08
1.95586e-05
5.93113e-08
1.95501e-05
5.52177e-08
1.95419e-05
5.1312e-08
1.95342e-05
4.76327e-08
1.95267e-05
4.422e-08
1.95195e-05
4.11158e-08
1.95125e-05
3.8363e-08
1.95056e-05
3.6007e-08
1.94988e-05
3.40942e-08
1.94921e-05
3.26738e-08
1.94853e-05
3.17967e-08
1.94783e-05
3.15175e-08
1.94712e-05
3.18932e-08
1.94637e-05
3.29857e-08
1.94559e-05
3.48608e-08
1.94475e-05
3.75902e-08
1.94386e-05
4.12512e-08
1.94289e-05
4.59287e-08
1.94184e-05
5.17152e-08
1.9407e-05
5.8713e-08
1.93945e-05
6.70341e-08
1.93807e-05
7.68032e-08
1.93657e-05
8.81578e-08
1.93492e-05
1.01251e-07
1.93311e-05
1.16253e-07
1.93113e-05
1.33352e-07
1.92898e-05
1.52758e-07
1.92663e-05
1.74705e-07
1.92409e-05
1.9945e-07
1.92135e-05
2.27277e-07
1.91842e-05
2.585e-07
1.91531e-05
2.93455e-07
1.91204e-05
3.32507e-07
1.90865e-05
3.7604e-07
1.90518e-05
4.24448e-07
1.90173e-05
4.78125e-07
1.89838e-05
5.37438e-07
1.89527e-05
6.02703e-07
1.8926e-05
6.74133e-07
1.89059e-05
7.51789e-07
1.88951e-05
8.35495e-07
1.88969e-05
9.24746e-07
1.89152e-05
1.01859e-06
1.89537e-05
1.11551e-06
1.90163e-05
1.21329e-06
1.91056e-05
1.30894e-06
1.92228e-05
1.39873e-06
1.9366e-05
1.47839e-06
1.54364e-06
1.95301e-05
2.14003e-05
-1.24765e-08
2.14028e-05
-1.30291e-08
2.14043e-05
2.11842e-09
2.14032e-05
3.21828e-08
2.13981e-05
7.20862e-08
2.13882e-05
1.13945e-07
2.13737e-05
1.50105e-07
2.13553e-05
1.75695e-07
2.13342e-05
1.89501e-07
2.13116e-05
1.93229e-07
2.12884e-05
1.90015e-07
2.12654e-05
1.83052e-07
2.12431e-05
1.74785e-07
2.12217e-05
1.66688e-07
2.12011e-05
1.59409e-07
2.11815e-05
1.53055e-07
2.11626e-05
1.47466e-07
2.11446e-05
1.42395e-07
2.11272e-05
1.37618e-07
2.11104e-05
1.32965e-07
2.10943e-05
1.28329e-07
2.10788e-05
1.23649e-07
2.10638e-05
1.18898e-07
2.10494e-05
1.14072e-07
2.10355e-05
1.09176e-07
2.10222e-05
1.04226e-07
2.10095e-05
9.92401e-08
2.09972e-05
9.42414e-08
2.09855e-05
8.92561e-08
2.09742e-05
8.43129e-08
2.09634e-05
7.94436e-08
2.09531e-05
7.46824e-08
2.09431e-05
7.00664e-08
2.09336e-05
6.56346e-08
2.09243e-05
6.14279e-08
2.09154e-05
5.74893e-08
2.09067e-05
5.3863e-08
2.08983e-05
5.05951e-08
2.08899e-05
4.77334e-08
2.08817e-05
4.53267e-08
2.08734e-05
4.34264e-08
2.08652e-05
4.20854e-08
2.08568e-05
4.13594e-08
2.08482e-05
4.13066e-08
2.08393e-05
4.19888e-08
2.08301e-05
4.34714e-08
2.08204e-05
4.58242e-08
2.08102e-05
4.91222e-08
2.07993e-05
5.34458e-08
2.07877e-05
5.88823e-08
2.07753e-05
6.55263e-08
2.07619e-05
7.348e-08
2.07475e-05
8.28551e-08
2.07319e-05
9.37732e-08
2.07152e-05
1.06367e-07
2.06971e-05
1.20781e-07
2.06776e-05
1.37172e-07
2.06567e-05
1.55713e-07
2.06344e-05
1.76587e-07
2.06106e-05
1.99995e-07
2.05853e-05
2.26152e-07
2.05588e-05
2.55285e-07
2.05312e-05
2.8763e-07
2.05027e-05
3.23435e-07
2.04738e-05
3.62943e-07
2.04449e-05
4.06394e-07
2.04169e-05
4.54005e-07
2.03905e-05
5.05956e-07
2.03671e-05
5.62368e-07
2.0348e-05
6.23274e-07
2.0335e-05
6.88584e-07
2.03303e-05
7.58042e-07
2.0336e-05
8.3118e-07
2.0355e-05
9.07262e-07
2.03898e-05
9.85237e-07
2.04431e-05
1.06369e-06
2.05169e-05
1.14084e-06
2.06128e-05
1.21451e-06
2.07307e-05
1.28228e-06
2.08688e-05
1.34162e-06
1.39019e-06
2.10237e-05
2.28993e-05
-1.44385e-08
2.29022e-05
-1.58809e-08
2.29044e-05
-2.71637e-11
2.29041e-05
3.24243e-08
2.29001e-05
7.61723e-08
2.28913e-05
1.22753e-07
2.28778e-05
1.6374e-07
2.286e-05
1.93556e-07
2.28391e-05
2.10534e-07
2.28162e-05
2.16237e-07
2.27924e-05
2.13913e-07
2.27686e-05
2.0701e-07
2.27453e-05
1.98262e-07
2.27228e-05
1.89391e-07
2.27012e-05
1.81223e-07
2.26805e-05
1.73978e-07
2.26607e-05
1.67546e-07
2.26417e-05
1.61701e-07
2.26234e-05
1.56217e-07
2.26058e-05
1.50914e-07
2.25889e-05
1.45672e-07
2.25725e-05
1.40421e-07
2.25567e-05
1.35125e-07
2.25415e-05
1.29775e-07
2.25269e-05
1.24373e-07
2.25128e-05
1.18934e-07
2.24991e-05
1.13476e-07
2.2486e-05
1.08025e-07
2.24734e-05
1.02608e-07
2.24612e-05
9.72567e-08
2.24494e-05
9.2006e-08
2.2438e-05
8.68937e-08
2.2427e-05
8.19601e-08
2.24163e-05
7.72479e-08
2.24059e-05
7.28021e-08
2.23957e-05
6.86688e-08
2.23857e-05
6.48965e-08
2.23758e-05
6.15347e-08
2.2366e-05
5.86347e-08
2.23562e-05
5.62491e-08
2.23464e-05
5.44325e-08
2.23364e-05
5.32414e-08
2.23263e-05
5.27345e-08
2.23159e-05
5.29729e-08
2.23052e-05
5.40209e-08
2.22941e-05
5.59462e-08
2.22824e-05
5.88204e-08
2.22702e-05
6.27193e-08
2.22574e-05
6.77241e-08
2.22438e-05
7.39208e-08
2.22294e-05
8.14017e-08
2.2214e-05
9.02655e-08
2.21978e-05
1.00618e-07
2.21805e-05
1.12572e-07
2.21621e-05
1.26247e-07
2.21427e-05
1.41774e-07
2.21221e-05
1.59287e-07
2.21005e-05
1.78931e-07
2.20778e-05
2.00856e-07
2.20542e-05
2.25218e-07
2.20297e-05
2.52177e-07
2.20047e-05
2.81891e-07
2.19794e-05
3.14518e-07
2.19542e-05
3.50202e-07
2.19297e-05
3.89073e-07
2.19065e-05
4.3123e-07
2.18853e-05
4.76735e-07
2.18673e-05
5.25592e-07
2.18535e-05
5.77733e-07
2.18454e-05
6.32994e-07
2.18445e-05
6.91094e-07
2.18525e-05
7.51608e-07
2.18713e-05
8.13948e-07
2.19028e-05
8.77338e-07
2.19488e-05
9.40804e-07
2.20108e-05
1.00317e-06
2.20901e-05
1.06309e-06
2.2187e-05
1.11908e-06
2.23013e-05
1.16957e-06
2.24313e-05
1.2131e-06
1.2484e-06
2.25745e-05
2.45033e-05
-1.65501e-08
2.45065e-05
-1.90918e-08
2.45093e-05
-2.7951e-09
2.451e-05
3.17604e-08
2.45071e-05
7.91339e-08
2.44996e-05
1.30367e-07
2.44871e-05
1.76306e-07
2.44701e-05
2.10646e-07
2.44495e-05
2.31197e-07
2.44265e-05
2.39297e-07
2.44024e-05
2.38235e-07
2.43779e-05
2.31674e-07
2.43537e-05
2.22627e-07
2.43302e-05
2.13075e-07
2.43076e-05
2.04049e-07
2.42859e-05
1.95899e-07
2.42652e-05
1.88592e-07
2.42452e-05
1.81936e-07
2.42261e-05
1.7571e-07
2.42077e-05
1.6973e-07
2.41899e-05
1.63866e-07
2.41727e-05
1.58037e-07
2.41562e-05
1.52199e-07
2.41401e-05
1.46335e-07
2.41246e-05
1.40447e-07
2.41096e-05
1.34544e-07
2.40951e-05
1.28648e-07
2.40811e-05
1.22782e-07
2.40675e-05
1.16978e-07
2.40542e-05
1.11268e-07
2.40414e-05
1.0569e-07
2.40289e-05
1.00286e-07
2.40167e-05
9.5098e-08
2.40047e-05
9.01724e-08
2.3993e-05
8.5557e-08
2.39814e-05
8.13014e-08
2.39699e-05
7.74568e-08
2.39585e-05
7.40758e-08
2.39471e-05
7.12124e-08
2.39357e-05
6.89219e-08
2.39241e-05
6.7261e-08
2.39123e-05
6.62886e-08
2.39003e-05
6.60647e-08
2.3888e-05
6.66519e-08
2.38753e-05
6.81153e-08
2.38622e-05
7.05227e-08
2.38485e-05
7.3945e-08
2.38342e-05
7.84564e-08
2.38193e-05
8.41347e-08
2.38037e-05
9.10621e-08
2.37873e-05
9.93243e-08
2.37702e-05
1.09011e-07
2.37522e-05
1.20218e-07
2.37333e-05
1.33043e-07
2.37136e-05
1.47588e-07
2.36931e-05
1.6396e-07
2.36718e-05
1.82265e-07
2.36497e-05
2.02613e-07
2.36272e-05
2.25113e-07
2.36042e-05
2.49871e-07
2.35811e-05
2.76985e-07
2.35581e-05
3.06544e-07
2.35357e-05
3.38624e-07
2.35144e-05
3.73276e-07
2.34946e-05
4.10525e-07
2.34772e-05
4.50355e-07
2.34629e-05
4.92704e-07
2.34528e-05
5.3745e-07
2.34478e-05
5.84398e-07
2.34492e-05
6.3327e-07
2.34583e-05
6.83692e-07
2.34764e-05
7.35183e-07
2.35049e-05
7.87149e-07
2.3545e-05
8.38883e-07
2.35979e-05
8.8957e-07
2.36644e-05
9.383e-07
2.3745e-05
9.84103e-07
2.38398e-05
1.02598e-06
2.3948e-05
1.06297e-06
2.40685e-05
1.09421e-06
1.11903e-06
2.41994e-05
2.62196e-05
-1.88028e-08
2.62232e-05
-2.26381e-08
2.62266e-05
-6.14829e-09
2.62281e-05
3.02351e-08
2.62263e-05
8.1002e-08
2.622e-05
1.36783e-07
2.62086e-05
1.87747e-07
2.61925e-05
2.26855e-07
2.61724e-05
2.51338e-07
2.61496e-05
2.62231e-07
2.61252e-05
2.628e-07
2.61002e-05
2.56877e-07
2.60753e-05
2.47736e-07
2.60509e-05
2.37628e-07
2.60274e-05
2.27801e-07
2.60048e-05
2.18761e-07
2.59832e-05
2.1057e-07
2.59623e-05
2.03081e-07
2.59423e-05
1.96093e-07
2.59231e-05
1.8942e-07
2.59044e-05
1.82926e-07
2.58864e-05
1.7652e-07
2.5869e-05
1.7015e-07
2.58521e-05
1.63793e-07
2.58357e-05
1.57445e-07
2.58198e-05
1.51115e-07
2.58044e-05
1.44821e-07
2.57893e-05
1.3859e-07
2.57746e-05
1.32451e-07
2.57603e-05
1.26442e-07
2.57463e-05
1.20601e-07
2.57325e-05
1.14973e-07
2.5719e-05
1.09602e-07
2.57056e-05
1.04537e-07
2.56925e-05
9.98284e-08
2.56793e-05
9.55282e-08
2.56663e-05
9.16896e-08
2.56532e-05
8.83671e-08
2.564e-05
8.56161e-08
2.56268e-05
8.34937e-08
2.56133e-05
8.20576e-08
2.55996e-05
8.13667e-08
2.55856e-05
8.14815e-08
2.55712e-05
8.2464e-08
2.55565e-05
8.43777e-08
2.55412e-05
8.72884e-08
2.55254e-05
9.12633e-08
2.55091e-05
9.63721e-08
2.54921e-05
1.02686e-07
2.54746e-05
1.1028e-07
2.54563e-05
1.19229e-07
2.54374e-05
1.2961e-07
2.54178e-05
1.41501e-07
2.53976e-05
1.54983e-07
2.53768e-05
1.70134e-07
2.53555e-05
1.87032e-07
2.53337e-05
2.05751e-07
2.53118e-05
2.26362e-07
2.52897e-05
2.48928e-07
2.52679e-05
2.73503e-07
2.52466e-05
3.00127e-07
2.52261e-05
3.28823e-07
2.52069e-05
3.59593e-07
2.51896e-05
3.92409e-07
2.51748e-05
4.27212e-07
2.5163e-05
4.63901e-07
2.51552e-05
5.0233e-07
2.51522e-05
5.42297e-07
2.51549e-05
5.83541e-07
2.51642e-05
6.25737e-07
2.51812e-05
6.68488e-07
2.52069e-05
7.1133e-07
2.52421e-05
7.53731e-07
2.52876e-05
7.951e-07
2.53442e-05
8.34797e-07
2.54121e-05
8.72154e-07
2.54914e-05
9.06496e-07
2.55819e-05
9.37174e-07
2.5683e-05
9.63598e-07
2.57937e-05
9.85275e-07
1.00186e-06
2.59125e-05
2.80562e-05
-2.11848e-08
2.806e-05
-2.64857e-08
2.80639e-05
-1.0023e-08
2.80663e-05
2.79361e-08
2.80654e-05
8.18691e-08
2.80602e-05
1.4207e-07
2.805e-05
1.98082e-07
2.80348e-05
2.42137e-07
2.80154e-05
2.70849e-07
2.79929e-05
2.84889e-07
2.79684e-05
2.87435e-07
2.7943e-05
2.82445e-07
2.79175e-05
2.73435e-07
2.78924e-05
2.62921e-07
2.78681e-05
2.52382e-07
2.78447e-05
2.42497e-07
2.78221e-05
2.33436e-07
2.78004e-05
2.25117e-07
2.77796e-05
2.17362e-07
2.77594e-05
2.09996e-07
2.77399e-05
2.02877e-07
2.77211e-05
1.95906e-07
2.77027e-05
1.89026e-07
2.76849e-05
1.82205e-07
2.76676e-05
1.75434e-07
2.76507e-05
1.6872e-07
2.76342e-05
1.6208e-07
2.7618e-05
1.5554e-07
2.76022e-05
1.49131e-07
2.75866e-05
1.42891e-07
2.75713e-05
1.36859e-07
2.75562e-05
1.31082e-07
2.75412e-05
1.25607e-07
2.75264e-05
1.20483e-07
2.75116e-05
1.15762e-07
2.74968e-05
1.11499e-07
2.7482e-05
1.07746e-07
2.74671e-05
1.04559e-07
2.7452e-05
1.01995e-07
2.74368e-05
1.00109e-07
2.74213e-05
9.89593e-08
2.74055e-05
9.86033e-08
2.73894e-05
9.90999e-08
2.73729e-05
1.00508e-07
2.7356e-05
1.02888e-07
2.73386e-05
1.063e-07
2.73207e-05
1.10806e-07
2.73023e-05
1.16467e-07
2.72833e-05
1.23346e-07
2.72638e-05
1.31505e-07
2.72438e-05
1.41006e-07
2.72233e-05
1.51909e-07
2.72023e-05
1.64273e-07
2.7181e-05
1.78154e-07
2.71594e-05
1.93605e-07
2.71376e-05
2.10673e-07
2.71158e-05
2.29397e-07
2.70943e-05
2.49808e-07
2.70732e-05
2.71926e-07
2.70528e-05
2.95754e-07
2.70336e-05
3.21281e-07
2.70159e-05
3.48474e-07
2.70001e-05
3.77273e-07
2.69869e-05
4.07594e-07
2.69767e-05
4.39316e-07
2.69702e-05
4.72285e-07
2.69682e-05
5.06306e-07
2.69713e-05
5.41142e-07
2.69802e-05
5.7651e-07
2.69958e-05
6.12085e-07
2.70187e-05
6.47496e-07
2.70496e-05
6.82334e-07
2.70891e-05
7.16158e-07
2.71376e-05
7.48503e-07
2.71954e-05
7.78891e-07
2.72626e-05
8.06848e-07
2.7339e-05
8.31923e-07
2.74243e-05
8.53701e-07
2.75179e-05
8.71828e-07
2.7619e-05
8.86031e-07
8.96141e-07
2.77265e-05
3.00213e-05
-2.36803e-08
3.00254e-05
-3.05918e-08
3.00298e-05
-1.43392e-08
3.00328e-05
2.49801e-08
3.00328e-05
8.18713e-08
3.00286e-05
1.46353e-07
3.00194e-05
2.07392e-07
3.00051e-05
2.56508e-07
2.99864e-05
2.89677e-07
2.99643e-05
3.0716e-07
2.99399e-05
3.11994e-07
2.99143e-05
3.08221e-07
2.98884e-05
2.99574e-07
2.98627e-05
2.88825e-07
2.98377e-05
2.77692e-07
2.98134e-05
2.67034e-07
2.97901e-05
2.57147e-07
2.97675e-05
2.48022e-07
2.97458e-05
2.39519e-07
2.97248e-05
2.31475e-07
2.97044e-05
2.23751e-07
2.96846e-05
2.16242e-07
2.96653e-05
2.08883e-07
2.96466e-05
2.01638e-07
2.96282e-05
1.94492e-07
2.96102e-05
1.8745e-07
2.95925e-05
1.80525e-07
2.95752e-05
1.73743e-07
2.95581e-05
1.67136e-07
2.95412e-05
1.6074e-07
2.95244e-05
1.54597e-07
2.95078e-05
1.48754e-07
2.94913e-05
1.43257e-07
2.94747e-05
1.38159e-07
2.94582e-05
1.3351e-07
2.94416e-05
1.29364e-07
2.94249e-05
1.25776e-07
2.9408e-05
1.22799e-07
2.93909e-05
1.20489e-07
2.93736e-05
1.189e-07
2.9356e-05
1.18087e-07
2.9338e-05
1.18106e-07
2.93197e-05
1.1901e-07
2.9301e-05
1.20855e-07
2.92819e-05
1.23693e-07
2.92623e-05
1.27579e-07
2.92423e-05
1.32565e-07
2.92218e-05
1.38702e-07
2.92009e-05
1.4604e-07
2.91797e-05
1.54626e-07
2.9158e-05
1.64507e-07
2.91361e-05
1.75722e-07
2.9114e-05
1.88309e-07
2.90918e-05
2.023e-07
2.90696e-05
2.17717e-07
2.90477e-05
2.34579e-07
2.90262e-05
2.52889e-07
2.90054e-05
2.72642e-07
2.89855e-05
2.93818e-07
2.89669e-05
3.16379e-07
2.895e-05
3.40271e-07
2.89351e-05
3.65415e-07
2.89227e-05
3.91714e-07
2.89133e-05
4.19039e-07
2.89074e-05
4.4724e-07
2.89056e-05
4.76132e-07
2.89085e-05
5.05504e-07
2.89166e-05
5.35113e-07
2.89305e-05
5.64689e-07
2.89507e-05
5.93935e-07
2.89777e-05
6.22531e-07
2.90119e-05
6.5014e-07
2.90537e-05
6.76415e-07
2.91032e-05
7.01005e-07
2.91605e-05
7.2357e-07
2.92256e-05
7.43786e-07
2.92981e-05
7.61356e-07
2.93777e-05
7.76027e-07
2.94639e-05
7.87593e-07
2.9556e-05
7.9591e-07
8.00907e-07
2.96532e-05
3.2124e-05
-2.6273e-08
3.21284e-05
-3.49093e-08
3.21331e-05
-1.90102e-08
3.21366e-05
2.1496e-08
3.21374e-05
8.11659e-08
3.2134e-05
1.49788e-07
3.21257e-05
2.158e-07
3.21123e-05
2.70032e-07
3.20943e-05