/*--------------------------------*- C++ -*----------------------------------*\
| =========                 |                                                 |
| \\      /  F ield         | OpenFOAM: The Open Source CFD Toolbox           |
|  \\    /   O peration     | Version:  4.1                                   |
|   \\  /    A nd           | Web:      www.OpenFOAM.org                      |
|    \\/     M anipulation  |                                                 |
\*---------------------------------------------------------------------------*/
FoamFile
{
    version     2.0;
    format      ascii;
    class       volVectorField;
    location    "0.8";
    object      U;
}
// * * * * * * * * * * * * * * * * * * * * * * * * * * * * * * * * * * * * * //

dimensions      [0 1 -1 0 0 0 0];

internalField   nonuniform List<vector> 
12013
(
(0.100003 -6.61161e-07 0)
(0.100011 -4.60918e-07 0)
(0.100013 8.29224e-07 0)
(0.0999952 3.18401e-06 0)
(0.09995 6.20497e-06 0)
(0.0998745 9.28747e-06 0)
(0.0997725 1.18604e-05 0)
(0.099652 1.35857e-05 0)
(0.0995226 1.44192e-05 0)
(0.0993921 1.45377e-05 0)
(0.0992659 1.42144e-05 0)
(0.0991463 1.37048e-05 0)
(0.0990339 1.31878e-05 0)
(0.0989279 1.27554e-05 0)
(0.0988273 1.24308e-05 0)
(0.0987311 1.2198e-05 0)
(0.0986385 1.20239e-05 0)
(0.0985491 1.18761e-05 0)
(0.0984629 1.17284e-05 0)
(0.0983798 1.15629e-05 0)
(0.0982999 1.13696e-05 0)
(0.0982234 1.1143e-05 0)
(0.0981504 1.08814e-05 0)
(0.0980811 1.05845e-05 0)
(0.0980157 1.02528e-05 0)
(0.0979542 9.88723e-06 0)
(0.0978967 9.48918e-06 0)
(0.0978435 9.05986e-06 0)
(0.0977944 8.60124e-06 0)
(0.0977497 8.11564e-06 0)
(0.0977092 7.60608e-06 0)
(0.097673 7.07567e-06 0)
(0.0976411 6.52866e-06 0)
(0.0976134 5.97016e-06 0)
(0.0975899 5.40521e-06 0)
(0.0975704 4.84029e-06 0)
(0.0975548 4.28277e-06 0)
(0.0975429 3.74024e-06 0)
(0.0975345 3.22187e-06 0)
(0.0975293 2.73766e-06 0)
(0.0975271 2.29848e-06 0)
(0.0975275 1.91716e-06 0)
(0.0975301 1.60685e-06 0)
(0.0975346 1.38343e-06 0)
(0.0975404 1.26407e-06 0)
(0.0975471 1.26876e-06 0)
(0.097554 1.41975e-06 0)
(0.0975604 1.74227e-06 0)
(0.0975658 2.26536e-06 0)
(0.0975692 3.02253e-06 0)
(0.0975698 4.05263e-06 0)
(0.0975666 5.40008e-06 0)
(0.0975585 7.11686e-06 0)
(0.0975442 9.26416e-06 0)
(0.0975223 1.19139e-05 0)
(0.0974912 1.51507e-05 0)
(0.0974492 1.90764e-05 0)
(0.0973941 2.38127e-05 0)
(0.0973237 2.95065e-05 0)
(0.0972352 3.63371e-05 0)
(0.0971254 4.45245e-05 0)
(0.0969905 5.43423e-05 0)
(0.0968263 6.61323e-05 0)
(0.0966274 8.03276e-05 0)
(0.0963875 9.74847e-05 0)
(0.0960991 0.000118325 0)
(0.0957525 0.000143801 0)
(0.095336 0.000175187 0)
(0.0948346 0.000214221 0)
(0.0942292 0.000263314 0)
(0.0934946 0.000325889 0)
(0.0925973 0.000406899 0)
(0.0914919 0.000513691 0)
(0.0901151 0.00065742 0)
(0.088377 0.000855445 0)
(0.0861476 0.00113544 0)
(0.0832341 0.00154261 0)
(0.0793303 0.00215473 0)
(0.073958 0.00312912 0)
(0.0665476 0.00490632 0)
(0.0582042 0.00947198 0)
(0.100003 -2.04008e-06 0)
(0.100011 -1.44239e-06 0)
(0.100013 2.5028e-06 0)
(0.0999963 9.71823e-06 0)
(0.0999517 1.89845e-05 0)
(0.099877 2.84465e-05 0)
(0.0997756 3.63508e-05 0)
(0.0996558 4.1658e-05 0)
(0.0995268 4.42287e-05 0)
(0.0993966 4.46051e-05 0)
(0.0992705 4.36221e-05 0)
(0.099151 4.20646e-05 0)
(0.0990386 4.0482e-05 0)
(0.0989326 3.91563e-05 0)
(0.098832 3.81609e-05 0)
(0.0987357 3.7446e-05 0)
(0.0986431 3.69119e-05 0)
(0.0985537 3.64585e-05 0)
(0.0984674 3.6005e-05 0)
(0.0983842 3.54983e-05 0)
(0.0983043 3.49069e-05 0)
(0.0982277 3.42147e-05 0)
(0.0981546 3.34154e-05 0)
(0.0980852 3.2508e-05 0)
(0.0980196 3.14947e-05 0)
(0.0979578 3.03784e-05 0)
(0.0979002 2.91628e-05 0)
(0.0978466 2.78519e-05 0)
(0.0977972 2.64522e-05 0)
(0.097752 2.49704e-05 0)
(0.0977111 2.34155e-05 0)
(0.0976744 2.17978e-05 0)
(0.0976419 2.01299e-05 0)
(0.0976136 1.84273e-05 0)
(0.0975893 1.67062e-05 0)
(0.0975691 1.49861e-05 0)
(0.0975526 1.32887e-05 0)
(0.0975398 1.16391e-05 0)
(0.0975304 1.0065e-05 0)
(0.0975241 8.5964e-06 0)
(0.0975208 7.26694e-06 0)
(0.09752 6.11453e-06 0)
(0.0975213 5.1822e-06 0)
(0.0975244 4.51722e-06 0)
(0.0975288 4.17298e-06 0)
(0.0975339 4.20936e-06 0)
(0.0975392 4.69497e-06 0)
(0.097544 5.70783e-06 0)
(0.0975476 7.33633e-06 0)
(0.0975492 9.68282e-06 0)
(0.097548 1.2866e-05 0)
(0.0975429 1.70218e-05 0)
(0.0975328 2.23093e-05 0)
(0.0975166 2.89141e-05 0)
(0.0974927 3.70557e-05 0)
(0.0974597 4.69935e-05 0)
(0.0974159 5.90356e-05 0)
(0.0973591 7.35521e-05 0)
(0.097287 9.09892e-05 0)
(0.0971971 0.00011189 0)
(0.0970863 0.000136921 0)
(0.0969508 0.000166906 0)
(0.0967866 0.000202876 0)
(0.0965886 0.000246132 0)
(0.0963508 0.00029834 0)
(0.096066 0.00036165 0)
(0.0957253 0.00043889 0)
(0.0953178 0.000533821 0)
(0.0948301 0.000651533 0)
(0.0942449 0.00079904 0)
(0.0935402 0.000986171 0)
(0.0926877 0.00122698 0)
(0.0916501 0.00154193 0)
(0.0903778 0.0019614 0)
(0.0888052 0.0025312 0)
(0.0868449 0.00332118 0)
(0.0843835 0.00443776 0)
(0.0812718 0.00604107 0)
(0.0773432 0.00836749 0)
(0.0726515 0.0116946 0)
(0.0685479 0.0158904 0)
(0.100003 -3.53658e-06 0)
(0.100012 -2.57244e-06 0)
(0.100014 4.15462e-06 0)
(0.0999981 1.65093e-05 0)
(0.0999549 3.24115e-05 0)
(0.0998818 4.86815e-05 0)
(0.0997821 6.23042e-05 0)
(0.0996638 7.14843e-05 0)
(0.0995359 7.59677e-05 0)
(0.0994065 7.66758e-05 0)
(0.0992809 7.5034e-05 0)
(0.0991616 7.23891e-05 0)
(0.0990493 6.96868e-05 0)
(0.0989433 6.74155e-05 0)
(0.0988425 6.57052e-05 0)
(0.0987462 6.44732e-05 0)
(0.0986535 6.35525e-05 0)
(0.0985641 6.27713e-05 0)
(0.0984778 6.19931e-05 0)
(0.0983946 6.11262e-05 0)
(0.0983146 6.01165e-05 0)
(0.0982379 5.89368e-05 0)
(0.0981647 5.75762e-05 0)
(0.0980951 5.60324e-05 0)
(0.0980292 5.4309e-05 0)
(0.0979672 5.24111e-05 0)
(0.0979091 5.03452e-05 0)
(0.097855 4.81192e-05 0)
(0.097805 4.5743e-05 0)
(0.0977592 4.32289e-05 0)
(0.0977174 4.05918e-05 0)
(0.0976798 3.78501e-05 0)
(0.0976463 3.50258e-05 0)
(0.0976168 3.21447e-05 0)
(0.0975913 2.92357e-05 0)
(0.0975696 2.63321e-05 0)
(0.0975516 2.34713e-05 0)
(0.0975371 2.06967e-05 0)
(0.0975259 1.80553e-05 0)
(0.0975177 1.5599e-05 0)
(0.0975122 1.3386e-05 0)
(0.0975091 1.14811e-05 0)
(0.097508 9.95821e-06 0)
(0.0975085 8.89817e-06 0)
(0.0975101 8.39268e-06 0)
(0.0975123 8.54431e-06 0)
(0.0975146 9.47094e-06 0)
(0.0975162 1.13052e-05 0)
(0.0975165 1.41989e-05 0)
(0.0975146 1.83267e-05 0)
(0.0975098 2.389e-05 0)
(0.0975011 3.11211e-05 0)
(0.0974873 4.02905e-05 0)
(0.0974672 5.17138e-05 0)
(0.0974396 6.57625e-05 0)
(0.0974028 8.28757e-05 0)
(0.0973553 0.000103574 0)
(0.097295 0.000128479 0)
(0.0972197 0.000158343 0)
(0.0971269 0.000194074 0)
(0.0970138 0.000236783 0)
(0.0968768 0.00028784 0)
(0.0967122 0.00034895 0)
(0.0965152 0.000422253 0)
(0.0962805 0.000510467 0)
(0.0960016 0.000617079 0)
(0.0956707 0.000746625 0)
(0.0952786 0.000905069 0)
(0.0948138 0.00110038 0)
(0.0942626 0.00134332 0)
(0.0936081 0.00164868 0)
(0.0928297 0.00203703 0)
(0.0919023 0.00253728 0)
(0.0907962 0.00319047 0)
(0.0894774 0.0040549 0)
(0.0879113 0.00521242 0)
(0.0860712 0.0067738 0)
(0.0839553 0.00887658 0)
(0.0816309 0.0116603 0)
(0.0793701 0.0151418 0)
(0.0779034 0.0187086 0)
(0.100003 -5.15939e-06 0)
(0.100012 -3.89236e-06 0)
(0.100015 5.70077e-06 0)
(0.100001 2.34228e-05 0)
(0.0999596 4.63127e-05 0)
(0.0998892 6.98071e-05 0)
(0.0997923 8.95578e-05 0)
(0.0996765 0.000102953 0)
(0.0995507 0.000109591 0)
(0.0994227 0.000110771 0)
(0.0992979 0.000108526 0)
(0.099179 0.000104792 0)
(0.0990668 0.000100936 0)
(0.0989608 9.76735e-05 0)
(0.09886 9.52018e-05 0)
(0.0987636 9.34122e-05 0)
(0.0986709 9.20709e-05 0)
(0.0985816 9.09346e-05 0)
(0.0984953 8.98092e-05 0)
(0.0984122 8.8563e-05 0)
(0.0983322 8.71173e-05 0)
(0.0982555 8.54331e-05 0)
(0.0981822 8.34941e-05 0)
(0.0981124 8.12973e-05 0)
(0.0980463 7.88466e-05 0)
(0.0979839 7.61497e-05 0)
(0.0979253 7.32162e-05 0)
(0.0978707 7.0058e-05 0)
(0.0978199 6.66885e-05 0)
(0.0977732 6.31266e-05 0)
(0.0977304 5.93938e-05 0)
(0.0976917 5.5517e-05 0)
(0.0976568 5.15283e-05 0)
(0.0976258 4.74646e-05 0)
(0.0975986 4.33687e-05 0)
(0.097575 3.92886e-05 0)
(0.0975549 3.52792e-05 0)
(0.097538 3.1402e-05 0)
(0.0975243 2.77252e-05 0)
(0.0975133 2.43244e-05 0)
(0.0975049 2.12832e-05 0)
(0.0974986 1.86962e-05 0)
(0.0974942 1.66684e-05 0)
(0.0974911 1.53171e-05 0)
(0.0974889 1.47732e-05 0)
(0.0974871 1.51858e-05 0)
(0.0974851 1.67231e-05 0)
(0.0974823 1.9575e-05 0)
(0.0974779 2.39596e-05 0)
(0.0974713 3.01265e-05 0)
(0.0974616 3.83629e-05 0)
(0.0974477 4.9e-05 0)
(0.0974288 6.24215e-05 0)
(0.0974035 7.90764e-05 0)
(0.0973707 9.94899e-05 0)
(0.0973289 0.00012428 0)
(0.0972764 0.00015418 0)
(0.0972114 0.000190062 0)
(0.0971319 0.000232973 0)
(0.0970355 0.000284176 0)
(0.0969196 0.000345205 0)
(0.0967812 0.000417942 0)
(0.0966167 0.000504709 0)
(0.0964221 0.0006084 0)
(0.0961929 0.00073265 0)
(0.0959235 0.000882075 0)
(0.0956078 0.00106259 0)
(0.0952386 0.00128183 0)
(0.0948075 0.00154982 0)
(0.094305 0.00187976 0)
(0.0937204 0.00228922 0)
(0.0930421 0.00280174 0)
(0.0922586 0.00344889 0)
(0.0913599 0.00427283 0)
(0.0903412 0.00532887 0)
(0.0892095 0.00668662 0)
(0.087995 0.0084259 0)
(0.0867684 0.0106188 0)
(0.0856658 0.0132816 0)
(0.084916 0.0162565 0)
(0.0848056 0.0189485 0)
(0.100003 -6.92795e-06 0)
(0.100012 -5.45769e-06 0)
(0.100017 7.02518e-06 0)
(0.100004 3.02692e-05 0)
(0.099966 6.04379e-05 0)
(0.0998993 9.15475e-05 0)
(0.0998065 0.000117855 0)
(0.0996943 0.000135866 0)
(0.0995714 0.000144985 0)
(0.0994456 0.00014686 0)
(0.0993221 0.000144139 0)
(0.0992039 0.000139363 0)
(0.0990919 0.000134347 0)
(0.0989859 0.000130055 0)
(0.0988852 0.000126773 0)
(0.0987888 0.000124376 0)
(0.0986962 0.00012257 0)
(0.098607 0.000121042 0)
(0.0985209 0.00011954 0)
(0.098438 0.000117891 0)
(0.0983581 0.000115991 0)
(0.0982815 0.000113789 0)
(0.0982083 0.00011126 0)
(0.0981384 0.0001084 0)
(0.0980721 0.000105215 0)
(0.0980094 0.000101714 0)
(0.0979504 9.79102e-05 0)
(0.0978952 9.38181e-05 0)
(0.0978437 8.9458e-05 0)
(0.097796 8.48537e-05 0)
(0.0977521 8.00352e-05 0)
(0.097712 7.50381e-05 0)
(0.0976756 6.99057e-05 0)
(0.0976428 6.46871e-05 0)
(0.0976135 5.94392e-05 0)
(0.0975877 5.42267e-05 0)
(0.097565 4.91222e-05 0)
(0.0975455 4.42076e-05 0)
(0.0975287 3.95733e-05 0)
(0.0975144 3.5319e-05 0)
(0.0975024 3.15566e-05 0)
(0.0974923 2.84106e-05 0)
(0.0974837 2.60197e-05 0)
(0.0974762 2.45386e-05 0)
(0.0974694 2.41405e-05 0)
(0.0974627 2.50213e-05 0)
(0.0974555 2.74014e-05 0)
(0.0974473 3.1531e-05 0)
(0.0974374 3.76951e-05 0)
(0.097425 4.62201e-05 0)
(0.0974093 5.74798e-05 0)
(0.0973894 7.19049e-05 0)
(0.0973643 8.99931e-05 0)
(0.0973329 0.000112324 0)
(0.0972939 0.000139574 0)
(0.0972462 0.000172536 0)
(0.0971881 0.000212144 0)
(0.0971179 0.000259509 0)
(0.0970339 0.000315949 0)
(0.096934 0.000383052 0)
(0.0968158 0.000462727 0)
(0.0966767 0.000557298 0)
(0.0965139 0.000669604 0)
(0.096324 0.000803141 0)
(0.0961035 0.000962247 0)
(0.0958484 0.00115234 0)
(0.0955541 0.00138022 0)
(0.0952159 0.00165451 0)
(0.0948289 0.00198619 0)
(0.0943881 0.00238929 0)
(0.0938891 0.00288175 0)
(0.0933291 0.00348653 0)
(0.0927081 0.00423266 0)
(0.0920317 0.00515611 0)
(0.0913149 0.0062997 0)
(0.0905879 0.00771024 0)
(0.089904 0.00942962 0)
(0.0893473 0.011474 0)
(0.0890363 0.0137926 0)
(0.0891088 0.0161973 0)
(0.0896471 0.0182723 0)
(0.100003 -8.86277e-06 0)
(0.100013 -7.33322e-06 0)
(0.100018 7.98712e-06 0)
(0.100008 3.68162e-05 0)
(0.0999741 7.44742e-05 0)
(0.0999122 0.00011355 0)
(0.0998246 0.000146858 0)
(0.0997173 0.000169952 0)
(0.0995984 0.000181971 0)
(0.0994754 0.000184867 0)
(0.0993537 0.000181883 0)
(0.0992365 0.000176173 0)
(0.099125 0.000170025 0)
(0.0990192 0.00016468 0)
(0.0989186 0.000160536 0)
(0.0988224 0.000157472 0)
(0.09873 0.000155143 0)
(0.0986411 0.000153174 0)
(0.0985553 0.000151258 0)
(0.0984727 0.000149178 0)
(0.0983932 0.000146805 0)
(0.0983169 0.000144071 0)
(0.0982439 0.000140946 0)
(0.0981741 0.000137423 0)
(0.0981078 0.000133506 0)
(0.0980449 0.000129209 0)
(0.0979856 0.000124545 0)
(0.0979298 0.000119536 0)
(0.0978776 0.000114207 0)
(0.0978289 0.000108589 0)
(0.0977839 0.000102719 0)
(0.0977423 9.66442e-05 0)
(0.0977042 9.04188e-05 0)
(0.0976695 8.41061e-05 0)
(0.0976381 7.77778e-05 0)
(0.0976097 7.15155e-05 0)
(0.0975843 6.54115e-05 0)
(0.0975616 5.9569e-05 0)
(0.0975414 5.41013e-05 0)
(0.0975235 4.91347e-05 0)
(0.0975075 4.48096e-05 0)
(0.097493 4.12821e-05 0)
(0.0974798 3.87254e-05 0)
(0.0974674 3.73335e-05 0)
(0.0974553 3.7323e-05 0)
(0.0974431 3.89373e-05 0)
(0.0974301 4.24506e-05 0)
(0.0974159 4.81734e-05 0)
(0.0973997 5.64584e-05 0)
(0.0973808 6.77082e-05 0)
(0.0973585 8.23815e-05 0)
(0.0973319 0.000101007 0)
(0.0973001 0.000124192 0)
(0.097262 0.000152641 0)
(0.0972166 0.000187172 0)
(0.0971627 0.000228738 0)
(0.0970988 0.000278458 0)
(0.0970236 0.000337649 0)
(0.0969355 0.00040787 0)
(0.0968327 0.000490971 0)
(0.0967133 0.000589166 0)
(0.0965753 0.000705114 0)
(0.0964164 0.000842024 0)
(0.0962344 0.00100379 0)
(0.0960266 0.00119515 0)
(0.0957905 0.00142192 0)
(0.0955238 0.00169122 0)
(0.0952241 0.00201184 0)
(0.0948897 0.0023946 0)
(0.09452 0.00285277 0)
(0.094116 0.00340262 0)
(0.0936817 0.00406372 0)
(0.0932253 0.00485921 0)
(0.0927619 0.00581524 0)
(0.0923159 0.00695926 0)
(0.0919248 0.00831564 0)
(0.091642 0.00989675 0)
(0.0915377 0.011687 0)
(0.0916918 0.0136177 0)
(0.0921722 0.0155358 0)
(0.0929828 0.017184 0)
(0.100003 -1.09854e-05 0)
(0.100013 -9.59066e-06 0)
(0.10002 8.42779e-06 0)
(0.100013 4.27981e-05 0)
(0.0999835 8.80586e-05 0)
(0.0999276 0.000135396 0)
(0.0998463 0.000176155 0)
(0.099745 0.000204863 0)
(0.0996312 0.000220305 0)
(0.0995119 0.00022466 0)
(0.0993926 0.000221724 0)
(0.0992768 0.000215262 0)
(0.099166 0.000208054 0)
(0.0990606 0.00020165 0)
(0.0989603 0.000196593 0)
(0.0988644 0.000192792 0)
(0.0987724 0.00018987 0)
(0.098684 0.000187399 0)
(0.0985988 0.000185019 0)
(0.0985168 0.000182473 0)
(0.0984378 0.000179605 0)
(0.098362 0.000176329 0)
(0.0982894 0.000172606 0)
(0.0982199 0.000168425 0)
(0.0981537 0.00016379 0)
(0.0980908 0.000158716 0)
(0.0980313 0.000153221 0)
(0.0979751 0.00014733 0)
(0.0979222 0.000141074 0)
(0.0978727 0.000134493 0)
(0.0978265 0.000127633 0)
(0.0977835 0.000120552 0)
(0.0977438 0.000113317 0)
(0.0977071 0.000106004 0)
(0.0976733 9.87039e-05 0)
(0.0976423 9.15148e-05 0)
(0.097614 8.45496e-05 0)
(0.097588 7.7933e-05 0)
(0.0975642 7.18036e-05 0)
(0.0975423 6.63148e-05 0)
(0.097522 6.16362e-05 0)
(0.0975029 5.79564e-05 0)
(0.0974847 5.54848e-05 0)
(0.097467 5.44543e-05 0)
(0.0974493 5.51254e-05 0)
(0.0974312 5.77896e-05 0)
(0.097412 6.27745e-05 0)
(0.0973914 7.04498e-05 0)
(0.0973686 8.12349e-05 0)
(0.0973429 9.56046e-05 0)
(0.0973137 0.0001141 0)
(0.0972802 0.000137341 0)
(0.0972415 0.000166036 0)
(0.0971968 0.000201001 0)
(0.097145 0.000243181 0)
(0.0970851 0.000293667 0)
(0.0970159 0.00035373 0)
(0.0969364 0.000424855 0)
(0.0968451 0.000508779 0)
(0.0967408 0.000607548 0)
(0.096622 0.000723574 0)
(0.0964873 0.000859714 0)
(0.0963351 0.00101936 0)
(0.0961642 0.00120656 0)
(0.0959732 0.00142613 0)
(0.095761 0.00168383 0)
(0.095527 0.00198653 0)
(0.0952714 0.0023424 0)
(0.0949952 0.00276113 0)
(0.0947011 0.00325406 0)
(0.0943942 0.00383432 0)
(0.0940826 0.00451667 0)
(0.093779 0.00531704 0)
(0.0935021 0.00625144 0)
(0.0932779 0.00733365 0)
(0.0931409 0.00857121 0)
(0.0931344 0.00995888 0)
(0.0933075 0.0114689 0)
(0.0937068 0.0130389 0)
(0.0943595 0.0145615 0)
(0.0952465 0.0158858 0)
(0.100003 -1.33169e-05 0)
(0.100013 -1.23023e-05 0)
(0.100022 8.18322e-06 0)
(0.100018 4.79344e-05 0)
(0.099994 0.000100798 0)
(0.0999448 0.000156622 0)
(0.0998709 0.000205276 0)
(0.0997767 0.000240188 0)
(0.0996688 0.000259675 0)
(0.0995541 0.000266043 0)
(0.0994379 0.000263576 0)
(0.099324 0.000256625 0)
(0.0992144 0.000248479 0)
(0.0991097 0.000241036 0)
(0.0990098 0.00023502 0)
(0.0989145 0.000230407 0)
(0.0988231 0.00022681 0)
(0.0987354 0.000223763 0)
(0.098651 0.000220861 0)
(0.0985698 0.000217808 0)
(0.0984916 0.00021442 0)
(0.0984166 0.000210591 0)
(0.0983445 0.000206272 0)
(0.0982756 0.000201447 0)
(0.0982097 0.000196118 0)
(0.098147 0.000190301 0)
(0.0980874 0.000184018 0)
(0.0980309 0.000177299 0)
(0.0979776 0.000170181 0)
(0.0979273 0.000162713 0)
(0.09788 0.000154951 0)
(0.0978357 0.000146965 0)
(0.0977943 0.000138835 0)
(0.0977556 0.000130653 0)
(0.0977195 0.000122526 0)
(0.0976859 0.000114573 0)
(0.0976545 0.000106926 0)
(0.0976252 9.97343e-05 0)
(0.0975976 9.31608e-05 0)
(0.0975716 8.73864e-05 0)
(0.0975468 8.26116e-05 0)
(0.097523 7.9057e-05 0)
(0.0974996 7.69683e-05 0)
(0.0974764 7.66176e-05 0)
(0.0974529 7.83084e-05 0)
(0.0974287 8.23789e-05 0)
(0.0974033 8.92087e-05 0)
(0.0973761 9.92241e-05 0)
(0.0973466 0.000112906 0)
(0.0973141 0.000130797 0)
(0.0972781 0.000153513 0)
(0.0972378 0.000181752 0)
(0.0971925 0.000216313 0)
(0.0971414 0.000258106 0)
(0.0970838 0.000308174 0)
(0.0970186 0.000367716 0)
(0.0969452 0.000438115 0)
(0.0968624 0.000520965 0)
(0.0967695 0.000618115 0)
(0.0966654 0.000731708 0)
(0.0965493 0.000864234 0)
(0.0964204 0.00101859 0)
(0.096278 0.00119817 0)
(0.0961215 0.00140688 0)
(0.0959509 0.00164931 0)
(0.0957664 0.00193074 0)
(0.095569 0.00225729 0)
(0.0953606 0.00263593 0)
(0.0951444 0.00307454 0)
(0.0949254 0.00358186 0)
(0.0947107 0.00416726 0)
(0.0945105 0.00484043 0)
(0.0943385 0.00561055 0)
(0.0942129 0.00648514 0)
(0.0941565 0.00746804 0)
(0.0941966 0.00855657 0)
(0.094364 0.00973756 0)
(0.094689 0.0109825 0)
(0.0951959 0.0122431 0)
(0.0958922 0.0134492 0)
(0.0967566 0.0145143 0)
(0.100003 -1.58756e-05 0)
(0.100014 -1.55345e-05 0)
(0.100024 7.09962e-06 0)
(0.100024 5.19546e-05 0)
(0.100005 0.000112303 0)
(0.0999631 0.000176757 0)
(0.0998973 0.000233727 0)
(0.099811 0.000275471 0)
(0.09971 0.000299714 0)
(0.0996005 0.000308759 0)
(0.0994882 0.000307285 0)
(0.0993768 0.000300196 0)
(0.0992688 0.000291297 0)
(0.0991652 0.000282867 0)
(0.0990662 0.000275862 0)
(0.0989717 0.00027036 0)
(0.0988812 0.000265999 0)
(0.0987944 0.000262293 0)
(0.098711 0.000258802 0)
(0.0986308 0.000255196 0)
(0.0985537 0.00025126 0)
(0.0984796 0.00024687 0)
(0.0984084 0.000241963 0)
(0.0983402 0.000236516 0)
(0.0982749 0.000230529 0)
(0.0982125 0.000224017 0)
(0.098153 0.000217007 0)
(0.0980964 0.000209533 0)
(0.0980426 0.000201641 0)
(0.0979917 0.000193387 0)
(0.0979434 0.00018484 0)
(0.0978978 0.00017608 0)
(0.0978548 0.000167203 0)
(0.0978141 0.000158318 0)
(0.0977758 0.000149548 0)
(0.0977395 0.000141033 0)
(0.0977051 0.000132926 0)
(0.0976723 0.0001254 0)
(0.097641 0.000118643 0)
(0.0976109 0.000112864 0)
(0.0975816 0.000108292 0)
(0.0975529 0.000105182 0)
(0.0975244 0.000103814 0)
(0.0974957 0.000104498 0)
(0.0974664 0.000107579 0)
(0.0974362 0.000113438 0)
(0.0974045 0.000122504 0)
(0.0973709 0.000135254 0)
(0.0973348 0.000152224 0)
(0.0972958 0.000174015 0)
(0.0972533 0.000201306 0)
(0.0972067 0.000234861 0)
(0.0971554 0.000275545 0)
(0.0970987 0.000324337 0)
(0.097036 0.000382351 0)
(0.0969667 0.00045085 0)
(0.0968902 0.000531276 0)
(0.0968058 0.000625269 0)
(0.0967129 0.000734704 0)
(0.0966112 0.000861718 0)
(0.0965001 0.00100875 0)
(0.0963796 0.00117859 0)
(0.0962496 0.00137438 0)
(0.0961105 0.00159972 0)
(0.0959631 0.00185865 0)
(0.0958087 0.00215568 0)
(0.0956496 0.0024958 0)
(0.0954889 0.00288444 0)
(0.095331 0.00332738 0)
(0.0951818 0.00383055 0)
(0.0950494 0.00439975 0)
(0.0949439 0.00504015 0)
(0.0948779 0.00575559 0)
(0.0948668 0.00654755 0)
(0.0949282 0.00741385 0)
(0.0950817 0.00834689 0)
(0.0953468 0.0093317 0)
(0.0957409 0.010344 0)
(0.0962748 0.0113493 0)
(0.0969478 0.0123034 0)
(0.0977426 0.0131572 0)
(0.100003 -1.86754e-05 0)
(0.100014 -1.9339e-05 0)
(0.100026 5.05217e-06 0)
(0.100029 5.46297e-05 0)
(0.100016 0.000122235 0)
(0.0999815 0.000195367 0)
(0.0999242 0.000261031 0)
(0.0998463 0.000310248 0)
(0.0997528 0.000340018 0)
(0.0996494 0.000352492 0)
(0.0995415 0.000352632 0)
(0.0994333 0.00034584 0)
(0.0993275 0.000336435 0)
(0.0992254 0.000327115 0)
(0.0991277 0.000319113 0)
(0.0990344 0.000312657 0)
(0.0989451 0.000307445 0)
(0.0988595 0.000302995 0)
(0.0987774 0.000298846 0)
(0.0986985 0.000294638 0)
(0.0986226 0.000290129 0)
(0.0985496 0.000285173 0)
(0.0984795 0.000279693 0)
(0.0984121 0.000273656 0)
(0.0983475 0.00026706 0)
(0.0982856 0.000259918 0)
(0.0982263 0.000252261 0)
(0.0981697 0.000244128 0)
(0.0981157 0.000235573 0)
(0.0980641 0.000226661 0)
(0.098015 0.000217474 0)
(0.0979682 0.000208104 0)
(0.0979236 0.000198663 0)
(0.097881 0.000189275 0)
(0.0978404 0.000180084 0)
(0.0978014 0.000171247 0)
(0.097764 0.00016294 0)
(0.0977279 0.00015536 0)
(0.0976928 0.000148719 0)
(0.0976585 0.000143254 0)
(0.0976248 0.000139223 0)
(0.0975913 0.000136911 0)
(0.0975576 0.000136631 0)
(0.0975236 0.000138729 0)
(0.0974887 0.000143586 0)
(0.0974526 0.000151626 0)
(0.0974149 0.000163316 0)
(0.0973752 0.000179179 0)
(0.097333 0.000199795 0)
(0.0972879 0.000225812 0)
(0.0972395 0.000257955 0)
(0.0971872 0.000297034 0)
(0.0971307 0.000343955 0)
(0.0970694 0.000399738 0)
(0.0970028 0.000465524 0)
(0.0969307 0.000542596 0)
(0.0968526 0.000632394 0)
(0.0967683 0.000736534 0)
(0.0966775 0.000856829 0)
(0.0965801 0.000995305 0)
(0.0964764 0.00115423 0)
(0.0963665 0.00133611 0)
(0.0962512 0.00154373 0)
(0.0961315 0.00178015 0)
(0.0960089 0.00204866 0)
(0.0958856 0.00235281 0)
(0.0957644 0.00269631 0)
(0.0956491 0.00308295 0)
(0.0955446 0.00351642 0)
(0.095457 0.00400013 0)
(0.0953938 0.00453684 0)
(0.095364 0.00512829 0)
(0.095378 0.00577462 0)
(0.0954475 0.0064737 0)
(0.0955851 0.00722037 0)
(0.0958035 0.00800558 0)
(0.0961142 0.00881565 0)
(0.096526 0.0096318 0)
(0.0970427 0.0104303 0)
(0.0976607 0.0111839 0)
(0.0983673 0.0118644 0)
(0.100003 -2.17228e-05 0)
(0.100014 -2.37445e-05 0)
(0.100027 1.96146e-06 0)
(0.100034 5.58025e-05 0)
(0.100026 0.000130336 0)
(0.0999988 0.000212107 0)
(0.09995 0.000286774 0)
(0.0998808 0.000344083 0)
(0.0997952 0.000380172 0)
(0.0996984 0.000396883 0)
(0.0995957 0.00039933 0)
(0.0994913 0.000393345 0)
(0.0993883 0.00038375 0)
(0.0992884 0.000373688 0)
(0.0991924 0.000364717 0)
(0.0991006 0.000357265 0)
(0.0990128 0.000351128 0)
(0.0989287 0.000345857 0)
(0.0988481 0.000340985 0)
(0.0987706 0.000336131 0)
(0.0986962 0.000331029 0)
(0.0986245 0.000325509 0)
(0.0985555 0.000319481 0)
(0.0984892 0.0003129 0)
(0.0984254 0.000305759 0)
(0.098364 0.000298071 0)
(0.0983051 0.000289867 0)
(0.0982486 0.000281194 0)
(0.0981943 0.000272114 0)
(0.0981422 0.000262702 0)
(0.0980923 0.00025305 0)
(0.0980443 0.000243267 0)
(0.0979981 0.000233477 0)
(0.0979536 0.000223824 0)
(0.0979107 0.000214468 0)
(0.0978691 0.000205587 0)
(0.0978287 0.000197378 0)
(0.0977892 0.000190059 0)
(0.0977505 0.000183869 0)
(0.0977121 0.000179067 0)
(0.097674 0.000175941 0)
(0.0976358 0.000174804 0)
(0.0975972 0.000175998 0)
(0.0975579 0.000179899 0)
(0.0975177 0.000186921 0)
(0.097476 0.000197521 0)
(0.0974327 0.0002122 0)
(0.0973873 0.000231512 0)
(0.0973396 0.000256071 0)
(0.0972891 0.000286554 0)
(0.0972355 0.000323713 0)
(0.0971785 0.000368378 0)
(0.0971177 0.000421471 0)
(0.097053 0.000484013 0)
(0.0969839 0.000557131 0)
(0.0969104 0.000642076 0)
(0.0968324 0.000740227 0)
(0.0967499 0.000853101 0)
(0.0966629 0.000982367 0)
(0.0965719 0.00112985 0)
(0.0964773 0.00129752 0)
(0.0963799 0.00148752 0)
(0.0962808 0.00170214 0)
(0.0961815 0.00194376 0)
(0.0960841 0.00221486 0)
(0.095991 0.00251797 0)
(0.0959054 0.0028555 0)
(0.0958312 0.00322971 0)
(0.0957732 0.00364251 0)
(0.0957368 0.00409525 0)
(0.0957286 0.00458846 0)
(0.0957556 0.00512158 0)
(0.0958259 0.00569254 0)
(0.0959478 0.00629748 0)
(0.0961293 0.00693028 0)
(0.0963783 0.00758236 0)
(0.0967008 0.00824244 0)
(0.0971006 0.00889671 0)
(0.0975781 0.00952925 0)
(0.0981291 0.0101231 0)
(0.0987445 0.010662 0)
(0.100003 -2.50162e-05 0)
(0.100015 -2.87533e-05 0)
(0.100029 -2.19381e-06 0)
(0.100038 5.54077e-05 0)
(0.100035 0.000136473 0)
(0.100014 0.000226753 0)
(0.0999735 0.000310653 0)
(0.0999128 0.000376612 0)
(0.0998352 0.000419788 0)
(0.0997454 0.000441554 0)
(0.0996484 0.000447044 0)
(0.0995485 0.000442434 0)
(0.099449 0.000433026 0)
(0.0993518 0.000422427 0)
(0.0992581 0.000412564 0)
(0.0991682 0.000404109 0)
(0.0990822 0.000397001 0)
(0.0989999 0.000390851 0)
(0.0989209 0.000385206 0)
(0.0988451 0.000379674 0)
(0.0987722 0.000373969 0)
(0.0987019 0.000367903 0)
(0.0986342 0.000361365 0)
(0.0985689 0.000354302 0)
(0.098506 0.0003467 0)
(0.0984453 0.000338569 0)
(0.0983867 0.000329944 0)
(0.0983303 0.000320878 0)
(0.0982758 0.000311439 0)
(0.0982232 0.000301713 0)
(0.0981723 0.000291806 0)
(0.0981231 0.000281838 0)
(0.0980754 0.00027195 0)
(0.0980291 0.000262303 0)
(0.0979839 0.000253073 0)
(0.0979397 0.000244459 0)
(0.0978963 0.000236677 0)
(0.0978535 0.000229966 0)
(0.0978111 0.000224587 0)
(0.0977688 0.000220824 0)
(0.0977264 0.000218986 0)
(0.0976837 0.000219411 0)
(0.0976404 0.000222467 0)
(0.0975962 0.000228554 0)
(0.0975508 0.000238111 0)
(0.0975041 0.000251619 0)
(0.0974556 0.0002696 0)
(0.0974051 0.00029263 0)
(0.0973525 0.000321338 0)
(0.0972973 0.000356412 0)
(0.0972395 0.000398607 0)
(0.0971787 0.000448747 0)
(0.0971149 0.000507736 0)
(0.0970479 0.000576558 0)
(0.0969777 0.000656285 0)
(0.0969044 0.000748082 0)
(0.096828 0.00085321 0)
(0.0967488 0.000973024 0)
(0.0966673 0.00110898 0)
(0.0965841 0.00126261 0)
(0.0965001 0.00143555 0)
(0.0964162 0.00162948 0)
(0.0963339 0.00184611 0)
(0.0962551 0.00208715 0)
(0.0961818 0.00235426 0)
(0.0961167 0.00264897 0)
(0.0960629 0.00297258 0)
(0.096024 0.00332606 0)
(0.0960042 0.00370992 0)
(0.0960082 0.00412404 0)
(0.0960409 0.00456751 0)
(0.0961079 0.00503842 0)
(0.0962146 0.0055337 0)
(0.0963666 0.00604893 0)
(0.0965688 0.00657825 0)
(0.0968254 0.00711433 0)
(0.0971393 0.0076484 0)
(0.0975114 0.00817059 0)
(0.0979406 0.0086703 0)
(0.0984231 0.00913691 0)
(0.0989524 0.00956075 0)
(0.100003 -2.85453e-05 0)
(0.100015 -3.4339e-05 0)
(0.100029 -7.37528e-06 0)
(0.100041 5.34777e-05 0)
(0.100042 0.00014064 0)
(0.100027 0.000239228 0)
(0.0999937 0.000332497 0)
(0.0999409 0.000407572 0)
(0.0998712 0.000458533 0)
(0.0997886 0.000486139 0)
(0.0996977 0.000495411 0)
(0.0996028 0.000492777 0)
(0.0995073 0.000483984 0)
(0.0994134 0.000473114 0)
(0.0993224 0.000462491 0)
(0.099235 0.000453078 0)
(0.0991511 0.000444992 0)
(0.0990708 0.000437937 0)
(0.0989937 0.000431494 0)
(0.0989196 0.000425276 0)
(0.0988482 0.00041898 0)
(0.0987794 0.0004124 0)
(0.098713 0.000405412 0)
(0.0986488 0.000397949 0)
(0.0985867 0.000389991 0)
(0.0985267 0.000381547 0)
(0.0984685 0.000372653 0)
(0.0984121 0.000363367 0)
(0.0983573 0.000353766 0)
(0.0983041 0.000343945 0)
(0.0982524 0.000334022 0)
(0.098202 0.000324132 0)
(0.0981527 0.000314431 0)
(0.0981044 0.000305094 0)
(0.0980569 0.000296314 0)
(0.0980101 0.000288307 0)
(0.0979638 0.000281309 0)
(0.0979177 0.000275576 0)
(0.0978717 0.000271389 0)
(0.0978256 0.000269051 0)
(0.0977792 0.00026889 0)
(0.0977322 0.000271263 0)
(0.0976844 0.000276556 0)
(0.0976356 0.000285187 0)
(0.0975856 0.000297611 0)
(0.0975342 0.00031432 0)
(0.0974811 0.000335847 0)
(0.0974263 0.00036277 0)
(0.0973695 0.000395716 0)
(0.0973105 0.000435364 0)
(0.0972494 0.000482447 0)
(0.0971859 0.000537754 0)
(0.0971202 0.000602137 0)
(0.0970523 0.000676508 0)
(0.0969823 0.000761841 0)
(0.0969104 0.000859171 0)
(0.096837 0.00096959 0)
(0.0967626 0.00109424 0)
(0.0966878 0.00123432 0)
(0.0966135 0.00139103 0)
(0.0965407 0.0015656 0)
(0.0964707 0.00175923 0)
(0.096405 0.00197309 0)
(0.0963454 0.00220822 0)
(0.0962942 0.00246553 0)
(0.0962538 0.00274571 0)
(0.096227 0.00304915 0)
(0.0962168 0.00337587 0)
(0.0962268 0.0037254 0)
(0.0962606 0.0040967 0)
(0.0963218 0.00448804 0)
(0.0964143 0.00489693 0)
(0.0965418 0.00532003 0)
(0.0967075 0.00575312 0)
(0.0969143 0.0061911 0)
(0.0971641 0.00662809 0)
(0.0974578 0.00705752 0)
(0.0977951 0.00747241 0)
(0.0981744 0.00786571 0)
(0.0985923 0.00823064 0)
(0.0990441 0.00856135 0)
(0.100003 -3.22931e-05 0)
(0.100014 -4.04515e-05 0)
(0.10003 -1.34935e-05 0)
(0.100043 5.01331e-05 0)
(0.100047 0.000142954 0)
(0.100037 0.000249601 0)
(0.10001 0.000352278 0)
(0.0999644 0.000436821 0)
(0.0999021 0.000496157 0)
(0.0998266 0.000530314 0)
(0.0997421 0.000544071 0)
(0.0996526 0.000544022 0)
(0.0995616 0.000536312 0)
(0.0994715 0.000525489 0)
(0.0993837 0.0005143 0)
(0.099299 0.000504031 0)
(0.0992176 0.000495012 0)
(0.0991394 0.00048707 0)
(0.0990643 0.000479843 0)
(0.098992 0.000472957 0)
(0.0989223 0.000466107 0)
(0.098855 0.000459074 0)
(0.0987899 0.000451719 0)
(0.0987267 0.000443965 0)
(0.0986655 0.000435783 0)
(0.0986059 0.000427183 0)
(0.098548 0.000418201 0)
(0.0984916 0.000408899 0)
(0.0984365 0.000399364 0)
(0.0983827 0.0003897 0)
(0.09833 0.000380035 0)
(0.0982782 0.000370518 0)
(0.0982273 0.000361318 0)
(0.098177 0.000352623 0)
(0.0981273 0.000344644 0)
(0.0980779 0.00033761 0)
(0.0980286 0.000331772 0)
(0.0979794 0.000327403 0)
(0.09793 0.000324796 0)
(0.0978802 0.00032427 0)
(0.0978299 0.000326168 0)
(0.0977789 0.000330857 0)
(0.097727 0.000338734 0)
(0.097674 0.000350225 0)
(0.0976199 0.000365789 0)
(0.0975644 0.000385916 0)
(0.0975074 0.000411136 0)
(0.0974489 0.000442013 0)
(0.0973887 0.000479153 0)
(0.0973269 0.000523199 0)
(0.0972635 0.00057484 0)
(0.0971984 0.000634802 0)
(0.0971319 0.000703855 0)
(0.0970642 0.000782804 0)
(0.0969955 0.000872491 0)
(0.0969263 0.000973786 0)
(0.096857 0.00108758 0)
(0.0967884 0.00121477 0)
(0.0967211 0.00135625 0)
(0.0966562 0.0015129 0)
(0.0965948 0.00168553 0)
(0.0965382 0.00187491 0)
(0.0964879 0.00208165 0)
(0.0964458 0.00230625 0)
(0.0964138 0.002549 0)
(0.096394 0.00280993 0)
(0.0963889 0.00308877 0)
(0.0964008 0.00338489 0)
(0.0964326 0.00369724 0)
(0.0964867 0.00402427 0)
(0.0965659 0.00436394 0)
(0.0966726 0.00471366 0)
(0.096809 0.00507025 0)
(0.096977 0.00543004 0)
(0.0971779 0.00578884 0)
(0.0974123 0.00614211 0)
(0.0976803 0.00648503 0)
(0.0979809 0.00681271 0)
(0.0983123 0.0071204 0)
(0.0986719 0.00740371 0)
(0.0990562 0.00765897 0)
(0.100003 -3.62367e-05 0)
(0.100014 -4.70252e-05 0)
(0.10003 -2.04225e-05 0)
(0.100043 4.55572e-05 0)
(0.10005 0.000143627 0)
(0.100044 0.000258054 0)
(0.100022 0.000370098 0)
(0.099983 0.000464337 0)
(0.0999276 0.000532512 0)