/*--------------------------------*- C++ -*----------------------------------*\
| =========                 |                                                 |
| \\      /  F ield         | OpenFOAM: The Open Source CFD Toolbox           |
|  \\    /   O peration     | Version:  4.1                                   |
|   \\  /    A nd           | Web:      www.OpenFOAM.org                      |
|    \\/     M anipulation  |                                                 |
\*---------------------------------------------------------------------------*/
FoamFile
{
    version     2.0;
    format      ascii;
    class       surfaceScalarField;
    location    "0.4";
    object      phi;
}
// * * * * * * * * * * * * * * * * * * * * * * * * * * * * * * * * * * * * * //

dimensions      [1 0 -1 0 0 0 0];

internalField   nonuniform List<scalar> 
23692
(
9.30368e-05
4.27421e-08
9.29225e-05
1.14337e-07
9.27401e-05
1.82369e-07
9.25241e-05
2.15978e-07
9.2311e-05
2.1314e-07
9.21201e-05
1.9087e-07
9.19532e-05
1.66961e-07
9.18026e-05
1.50627e-07
9.16595e-05
1.43056e-07
9.15179e-05
1.41634e-07
9.13746e-05
1.4328e-07
9.12288e-05
1.45867e-07
9.10805e-05
1.48312e-07
9.09302e-05
1.50246e-07
9.07786e-05
1.51655e-07
9.06259e-05
1.52656e-07
9.04726e-05
1.53385e-07
9.03186e-05
1.53954e-07
9.01642e-05
1.54455e-07
9.00092e-05
1.54952e-07
8.98537e-05
1.55491e-07
8.96976e-05
1.56105e-07
8.95408e-05
1.56824e-07
8.93832e-05
1.57663e-07
8.92245e-05
1.58642e-07
8.90648e-05
1.59766e-07
8.89037e-05
1.6104e-07
8.87413e-05
1.6246e-07
8.85773e-05
1.64026e-07
8.84115e-05
1.65724e-07
8.8244e-05
1.67545e-07
8.80745e-05
1.69478e-07
8.7903e-05
1.71511e-07
8.77294e-05
1.73633e-07
8.75535e-05
1.75835e-07
8.73754e-05
1.7811e-07
8.7195e-05
1.80455e-07
8.70121e-05
1.8287e-07
8.68268e-05
1.85356e-07
8.66389e-05
1.87918e-07
8.64483e-05
1.90568e-07
8.6255e-05
1.93316e-07
8.60588e-05
1.9618e-07
8.58596e-05
1.99177e-07
8.56573e-05
2.02335e-07
8.54516e-05
2.0568e-07
8.52424e-05
2.09245e-07
8.50293e-05
2.13072e-07
8.48121e-05
2.17204e-07
8.45904e-05
2.21697e-07
8.43638e-05
2.26612e-07
8.41318e-05
2.32024e-07
8.38938e-05
2.38019e-07
8.36491e-05
2.44698e-07
8.33969e-05
2.52183e-07
8.31363e-05
2.60616e-07
8.28661e-05
2.7017e-07
8.25851e-05
2.81052e-07
8.22915e-05
2.93515e-07
8.19837e-05
3.07868e-07
8.16592e-05
3.24493e-07
8.13153e-05
3.43869e-07
8.09487e-05
3.66597e-07
8.05553e-05
3.93444e-07
8.01299e-05
4.254e-07
7.96661e-05
4.63753e-07
7.91559e-05
5.10209e-07
7.85889e-05
5.67055e-07
7.79515e-05
6.37406e-07
7.72259e-05
7.25575e-07
7.63883e-05
8.37635e-07
7.5406e-05
9.82286e-07
7.42338e-05
1.17221e-06
7.28076e-05
1.42621e-06
7.10349e-05
1.77262e-06
6.87803e-05
2.25467e-06
6.58416e-05
2.93868e-06
6.19141e-05
3.92753e-06
5.65221e-05
5.39197e-06
4.88749e-05
7.64724e-06
1.15288e-05
3.73461e-05
9.95556e-05
8.65053e-08
9.94354e-05
2.34486e-07
9.92426e-05
3.75196e-07
9.90133e-05
4.45272e-07
9.87862e-05
4.40232e-07
9.85822e-05
3.94878e-07
9.84034e-05
3.45831e-07
9.82418e-05
3.12171e-07
9.80885e-05
2.96451e-07
9.79367e-05
2.93359e-07
9.77834e-05
2.9661e-07
9.76275e-05
3.01824e-07
9.7469e-05
3.06777e-07
9.73086e-05
3.10706e-07
9.71467e-05
3.13575e-07
9.69837e-05
3.1562e-07
9.682e-05
3.1711e-07
9.66557e-05
3.18285e-07
9.64908e-05
3.19322e-07
9.63254e-05
3.20351e-07
9.61594e-05
3.2147e-07
9.59928e-05
3.22749e-07
9.58254e-05
3.24242e-07
9.56571e-05
3.25991e-07
9.54877e-05
3.28022e-07
9.53171e-05
3.30354e-07
9.51452e-05
3.32993e-07
9.49717e-05
3.35937e-07
9.47965e-05
3.39174e-07
9.46196e-05
3.42686e-07
9.44407e-05
3.46453e-07
9.42597e-05
3.50447e-07
9.40766e-05
3.54646e-07
9.38912e-05
3.59028e-07
9.37035e-05
3.63574e-07
9.35133e-05
3.68272e-07
9.33206e-05
3.73112e-07
9.31254e-05
3.78093e-07
9.29276e-05
3.83219e-07
9.2727e-05
3.88505e-07
9.25236e-05
3.93967e-07
9.23173e-05
3.99631e-07
9.21079e-05
4.05532e-07
9.18954e-05
4.11709e-07
9.16795e-05
4.18211e-07
9.14601e-05
4.25097e-07
9.12369e-05
4.32435e-07
9.10097e-05
4.40307e-07
9.07781e-05
4.48806e-07
9.05417e-05
4.58041e-07
9.03002e-05
4.68142e-07
9.0053e-05
4.79257e-07
8.97994e-05
4.91564e-07
8.95389e-05
5.05267e-07
8.92705e-05
5.20613e-07
8.89932e-05
5.37893e-07
8.87059e-05
5.57454e-07
8.84072e-05
5.79716e-07
8.80956e-05
6.05187e-07
8.77689e-05
6.3449e-07
8.74251e-05
6.68392e-07
8.70611e-05
7.07846e-07
8.66736e-05
7.5405e-07
8.62585e-05
8.08521e-07
8.58107e-05
8.73205e-07
8.53239e-05
9.50624e-07
8.479e-05
1.04408e-06
8.41991e-05
1.15798e-06
8.35383e-05
1.29823e-06
8.27909e-05
1.47291e-06
8.19354e-05
1.6932e-06
8.09429e-05
1.9748e-06
7.97751e-05
2.33995e-06
7.83808e-05
2.82048e-06
7.66914e-05
3.46209e-06
7.46162e-05
4.32986e-06
7.20411e-05
5.51376e-06
6.88379e-05
7.13075e-06
6.49105e-05
9.31942e-06
6.03853e-05
1.21724e-05
1.52821e-05
5.6632e-05
0.000106532
1.3031e-07
0.000106408
3.58132e-07
0.000106208
5.7549e-07
0.000105968
6.8564e-07
0.000105728
6.80447e-07
0.00010551
6.125e-07
0.000105318
5.37848e-07
0.000105144
4.86068e-07
0.000104979
4.61473e-07
0.000104816
4.56198e-07
0.000104652
4.60736e-07
0.000104485
4.68403e-07
0.000104316
4.75785e-07
0.000104146
4.81678e-07
0.000103973
4.86003e-07
0.0001038
4.89097e-07
0.000103625
4.91373e-07
0.00010345
4.93181e-07
0.000103275
4.9479e-07
0.000103099
4.96399e-07
0.000102922
4.98154e-07
0.000102745
5.00162e-07
0.000102567
5.02503e-07
0.000102387
5.05239e-07
0.000102207
5.08412e-07
0.000102025
5.12048e-07
0.000101842
5.16158e-07
0.000101657
5.20736e-07
0.000101471
5.25764e-07
0.000101282
5.31213e-07
0.000101092
5.37048e-07
0.000100899
5.43234e-07
0.000100704
5.49732e-07
0.000100506
5.56509e-07
0.000100306
5.63538e-07
0.000100104
5.70796e-07
9.98987e-05
5.78271e-07
9.96909e-05
5.85962e-07
9.94802e-05
5.93875e-07
9.92667e-05
6.02029e-07
9.90502e-05
6.10451e-07
9.88307e-05
6.19184e-07
9.86079e-05
6.28275e-07
9.83818e-05
6.3779e-07
9.81522e-05
6.478e-07
9.7919e-05
6.58397e-07
9.76817e-05
6.69683e-07
9.74402e-05
6.81783e-07
9.71942e-05
6.94838e-07
9.69432e-05
7.09016e-07
9.66869e-05
7.24512e-07
9.64246e-05
7.41552e-07
9.61557e-05
7.60401e-07
9.58796e-05
7.81374e-07
9.55954e-05
8.04838e-07
9.53021e-05
8.31229e-07
9.49985e-05
8.61071e-07
9.46832e-05
8.94989e-07
9.43546e-05
9.3374e-07
9.40109e-05
9.78246e-07
9.36496e-05
1.02964e-06
9.32682e-05
1.08931e-06
9.28632e-05
1.15902e-06
9.24308e-05
1.24094e-06
9.19661e-05
1.33788e-06
9.14634e-05
1.4534e-06
9.09153e-05
1.59214e-06
9.03131e-05
1.76016e-06
8.96459e-05
1.96547e-06
8.89e-05
2.2188e-06
8.80586e-05
2.53458e-06
8.7101e-05
2.93241e-06
8.6002e-05
3.43896e-06
8.47321e-05
4.09037e-06
8.32593e-05
4.93492e-06
8.15545e-05
6.03467e-06
7.96052e-05
7.46299e-06
7.74453e-05
9.29068e-06
7.52188e-05
1.15459e-05
7.32973e-05
1.40939e-05
1.63135e-05
7.22659e-05
0.000113998
1.73024e-07
0.000113874
4.82176e-07
0.00011367
7.79368e-07
0.000113422
9.33997e-07
0.00011317
9.32434e-07
0.000112938
8.44022e-07
0.000112732
7.44283e-07
0.000112544
6.73893e-07
0.000112366
6.39554e-07
0.000112191
6.31254e-07
0.000112015
6.3643e-07
0.000111838
6.46118e-07
0.000111658
6.55657e-07
0.000111476
6.63361e-07
0.000111293
6.69063e-07
0.000111109
6.73181e-07
0.000110924
6.76241e-07
0.000110739
6.78705e-07
0.000110553
6.8093e-07
0.000110366
6.83177e-07
0.000110178
6.85637e-07
0.00010999
6.88454e-07
0.000109801
6.91735e-07
0.000109611
6.95558e-07
0.000109419
6.99981e-07
0.000109226
7.05035e-07
0.000109031
7.10732e-07
0.000108835
7.17064e-07
0.000108637
7.24004e-07
0.000108437
7.31516e-07
0.000108234
7.3955e-07
0.000108029
7.48055e-07
0.000107822
7.5698e-07
0.000107612
7.66281e-07
0.0001074
7.75919e-07
0.000107185
7.85865e-07
0.000106967
7.96103e-07
0.000106746
8.06629e-07
0.000106523
8.17454e-07
0.000106296
8.28601e-07
0.000106066
8.40111e-07
0.000105834
8.52036e-07
0.000105597
8.64445e-07
0.000105358
8.77421e-07
0.000105115
8.91065e-07
0.000104867
9.05498e-07
0.000104616
9.2086e-07
0.000104361
9.37313e-07
0.000104101
9.55053e-07
0.000103835
9.74299e-07
0.000103564
9.95312e-07
0.000103288
1.01839e-06
0.000103004
1.0439e-06
0.000102713
1.07224e-06
0.000102414
1.1039e-06
0.000102106
1.13946e-06
0.000101787
1.1796e-06
0.000101457
1.22514e-06
0.000101114
1.27706e-06
0.000100756
1.33655e-06
0.00010038
1.40505e-06
9.99852e-05
1.48435e-06
9.95676e-05
1.57663e-06
9.91239e-05
1.68463e-06
9.86501e-05
1.81178e-06
9.81411e-05
1.9624e-06
9.75912e-05
2.14201e-06
9.69937e-05
2.35766e-06
9.63407e-05
2.61848e-06
9.56232e-05
2.93629e-06
9.48313e-05
3.32645e-06
9.39548e-05
3.80894e-06
9.29843e-05
4.40945e-06
9.19142e-05
5.16047e-06
9.07477e-05
6.1014e-06
8.95061e-05
7.27628e-06
8.82435e-05
8.72563e-06
8.7068e-05
1.04661e-05
8.61655e-05
1.24484e-05
8.57845e-05
1.44749e-05
1.60729e-05
8.60251e-05
0.000121989
2.13336e-07
0.000121868
6.03104e-07
0.000121665
9.82301e-07
0.000121412
1.18655e-06
0.00012115
1.19427e-06
0.000120905
1.08941e-06
0.000120683
9.66298e-07
0.00012048
8.77217e-07
0.000120287
8.32156e-07
0.000120099
8.19658e-07
0.000119911
8.24462e-07
0.000119721
8.35432e-07
0.00011953
8.46645e-07
0.000119338
8.55863e-07
0.000119144
8.62777e-07
0.00011895
8.67836e-07
0.000118754
8.71662e-07
0.000118558
8.74802e-07
0.000118361
8.77688e-07
0.000118164
8.80641e-07
0.000117966
8.83894e-07
0.000117767
8.87622e-07
0.000117566
8.91952e-07
0.000117365
8.96984e-07
0.000117162
9.02781e-07
0.000116958
9.09383e-07
0.000116752
9.168e-07
0.000116544
9.25018e-07
0.000116334
9.34004e-07
0.000116122
9.43705e-07
0.000115907
9.54062e-07
0.00011569
9.65009e-07
0.000115471
9.76481e-07
0.000115248
9.8842e-07
0.000115024
1.00078e-06
0.000114796
1.01352e-06
0.000114565
1.02663e-06
0.000114332
1.04009e-06
0.000114096
1.05392e-06
0.000113856
1.06816e-06
0.000113613
1.08285e-06
0.000113367
1.09805e-06
0.000113118
1.11386e-06
0.000112865
1.13038e-06
0.000112608
1.14773e-06
0.000112348
1.16606e-06
0.000112083
1.18556e-06
0.000111814
1.20642e-06
0.00011154
1.22887e-06
0.000111261
1.25321e-06
0.000110977
1.27974e-06
0.000110686
1.30884e-06
0.000110389
1.34095e-06
0.000110085
1.37656e-06
0.000109773
1.41627e-06
0.000109451
1.46078e-06
0.00010912
1.5109e-06
0.000108777
1.56763e-06
0.000108422
1.63211e-06
0.000108053
1.70576e-06
0.000107668
1.79025e-06
0.000107265
1.88765e-06
0.000106841
2.00046e-06
0.000106394
2.13173e-06
0.00010592
2.28526e-06
0.000105417
2.46573e-06
0.00010488
2.67898e-06
0.000104305
2.93227e-06
0.000103689
3.23469e-06
0.000103028
3.59758e-06
0.000102319
4.03503e-06
0.000101564
4.56432e-06
0.000100767
5.20621e-06
9.9943e-05
5.98461e-06
9.91194e-05
6.92497e-06
9.83458e-05
8.04996e-06
9.77011e-05
9.37024e-06
9.73002e-05
1.0867e-05
9.7285e-05
1.24637e-05
9.77733e-05
1.39866e-05
1.51331e-05
9.87132e-05
0.00013054
2.49946e-07
0.000130426
7.17388e-07
0.000130228
1.17952e-06
0.000129976
1.43907e-06
0.000129707
1.46354e-06
0.000129448
1.34818e-06
0.00012921
1.2047e-06
0.000128989
1.0974e-06
0.000128781
1.04062e-06
0.000128578
1.02245e-06
0.000128377
1.02553e-06
0.000128176
1.03674e-06
0.000127974
1.04891e-06
0.00012777
1.0592e-06
0.000127566
1.06707e-06
0.000127361
1.07294e-06
0.000127155
1.07747e-06
0.000126949
1.0813e-06
0.000126741
1.0849e-06
0.000126533
1.08864e-06
0.000126324
1.09279e-06
0.000126115
1.09754e-06
0.000125903
1.10306e-06
0.000125691
1.10944e-06
0.000125477
1.11676e-06
0.000125261
1.12506e-06
0.000125044
1.13434e-06
0.000124824
1.14458e-06
0.000124603
1.15575e-06
0.000124378
1.16777e-06
0.000124152
1.18057e-06
0.000123923
1.19407e-06
0.000123691
1.20819e-06
0.000123457
1.22287e-06
0.00012322
1.23804e-06
0.000122979
1.25366e-06
0.000122736
1.2697e-06
0.00012249
1.28617e-06
0.000122241
1.30308e-06
0.000121989
1.32046e-06
0.000121733
1.33837e-06
0.000121474
1.35689e-06
0.000121212
1.37612e-06
0.000120946
1.39619e-06
0.000120677
1.41725e-06
0.000120403
1.43948e-06
0.000120126
1.46307e-06
0.000119844
1.48828e-06
0.000119558
1.51537e-06
0.000119266
1.54468e-06
0.000118969
1.57658e-06
0.000118667
1.61149e-06
0.000118358
1.64993e-06
0.000118042
1.69246e-06
0.000117718
1.73977e-06
0.000117386
1.79266e-06
0.000117045
1.85204e-06
0.000116694
1.91901e-06
0.000116331
1.99486e-06
0.000115956
2.08113e-06
0.000115566
2.17964e-06
0.000115161
2.29259e-06
0.000114739
2.4226e-06
0.000114298
2.57282e-06
0.000113836
2.74708e-06
0.000113352
2.94998e-06
0.000112844
3.18707e-06
0.000112311
3.46507e-06
0.000111754
3.792e-06
0.000111174
4.17741e-06
0.000110577
4.63249e-06
0.000109971
5.16998e-06
0.000109373
5.80379e-06
0.00010881
6.5479e-06
0.000108321
7.4141e-06
0.000107963
8.40763e-06
0.000107814
9.51995e-06
0.000107963
1.07175e-05
0.0001085
1.1927e-05
0.000109464
1.30223e-05
1.38249e-05
0.000110772
0.000139691
2.81792e-07
0.000139586
8.21914e-07
0.000139399
1.36663e-06
0.000139151
1.68733e-06
0.000138877
1.73741e-06
0.000138606
1.61922e-06
0.000138351
1.45972e-06
0.000138113
1.3353e-06
0.000137888
1.26594e-06
0.00013767
1.24047e-06
0.000137455
1.24018e-06
0.000137242
1.25033e-06
0.000137028
1.26255e-06
0.000136814
1.27331e-06
0.000136599
1.28177e-06
0.000136384
1.28826e-06
0.000136168
1.29343e-06
0.000135951
1.29794e-06
0.000135734
1.30231e-06
0.000135516
1.30693e-06
0.000135296
1.31209e-06
0.000135076
1.31802e-06
0.000134854
1.32488e-06
0.000134631
1.33277e-06
0.000134406
1.34177e-06
0.000134179
1.35192e-06
0.00013395
1.36322e-06
0.000133719
1.37564e-06
0.000133486
1.38912e-06
0.00013325
1.40358e-06
0.000133012
1.41893e-06
0.000132771
1.43508e-06
0.000132527
1.45194e-06
0.00013228
1.46943e-06
0.000132031
1.48746e-06
0.000131778
1.50601e-06
0.000131523
1.52504e-06
0.000131265
1.54454e-06
0.000131003
1.56453e-06
0.000130739
1.58505e-06
0.000130471
1.60617e-06
0.0001302
1.62797e-06
0.000129925
1.65059e-06
0.000129647
1.67415e-06
0.000129366
1.69882e-06
0.000129081
1.72482e-06
0.000128791
1.75236e-06
0.000128498
1.78173e-06
0.0001282
1.81323e-06
0.000127897
1.84723e-06
0.00012759
1.88414e-06
0.000127277
1.92443e-06
0.000126958
1.96866e-06
0.000126633
2.01747e-06
0.000126301
2.07158e-06
0.000125962
2.13185e-06
0.000125615
2.19927e-06
0.000125259
2.27498e-06
0.000124894
2.36033e-06
0.000124518
2.45689e-06
0.000124131
2.56652e-06
0.000123732
2.69137e-06
0.000123321
2.83399e-06
0.000122896
2.99739e-06
0.000122458
3.18507e-06
0.000122007
3.40114e-06
0.000121544
3.65039e-06
0.000121071
3.9383e-06
0.000120591
4.27115e-06
0.000120113
4.65589e-06
0.000119645
5.10003e-06
0.000119204
5.61124e-06
0.000118811
6.19663e-06
0.000118498
6.86148e-06
0.000118305
7.60718e-06
0.000118284
8.42801e-06
0.000118498
9.30662e-06
0.000119007
1.02083e-05
0.000119858
1.10754e-05
0.000121056
1.18251e-05
1.23571e-05
0.000122523
0.000149483
3.08275e-07
0.000149391
9.14495e-07
0.000149217
1.54014e-06
0.000148977
1.92755e-06
0.000148701
2.01289e-06
0.00014842
1.9008e-06
0.000148149
1.73076e-06
0.000147893
1.59108e-06
0.00014765
1.50857e-06
0.000147417
1.47418e-06
0.000147188
1.46876e-06
0.000146962
1.47637e-06
0.000146737
1.48756e-06
0.000146512
1.49808e-06
0.000146288
1.5067e-06
0.000146062
1.51356e-06
0.000145836
1.51926e-06
0.00014561
1.52444e-06
0.000145383
1.52963e-06
0.000145154
1.53522e-06
0.000144925
1.54154e-06
0.000144694
1.5488e-06
0.000144462
1.55716e-06
0.000144228
1.56674e-06
0.000143992
1.5776e-06
0.000143754
1.58978e-06
0.000143514
1.60325e-06
0.000143272
1.61799e-06
0.000143027
1.6339e-06
0.00014278
1.65092e-06
0.00014253
1.66891e-06
0.000142277
1.68779e-06
0.000142022
1.70744e-06
0.000141763
1.72777e-06
0.000141502
1.7487e-06
0.000141238
1.77017e-06
0.000140971
1.79217e-06
0.000140701
1.81467e-06
0.000140427
1.83769e-06
0.000140151
1.86129e-06
0.000139872
1.88552e-06
0.000139589
1.91051e-06
0.000139304
1.93636e-06
0.000139014
1.96324e-06
0.000138722
1.99134e-06
0.000138426
2.02086e-06
0.000138126
2.05207e-06
0.000137823
2.08525e-06
0.000137515
2.12074e-06
0.000137204
2.15894e-06
0.000136887
2.20027e-06
0.000136567
2.24524e-06
0.000136241
2.29443e-06
0.00013591
2.3485e-06
0.000135573
2.4082e-06
0.000135231
2.4744e-06
0.000134882
2.5481e-06
0.000134526
2.63042e-06
0.000134164
2.72269e-06
0.000133794
2.82641e-06
0.000133418
2.94331e-06
0.000133034
3.07539e-06
0.000132643
3.22492e-06
0.000132246
3.3945e-06
0.000131844
3.58705e-06
0.000131439
3.80587e-06
0.000131035
4.05459e-06
0.000130636
4.33714e-06
0.000130249
4.65768e-06
0.000129885
5.02036e-06
0.000129556
5.42906e-06
0.00012928
5.88689e-06
0.000129081
6.39549e-06
0.000128989
6.95393e-06
0.000129039
7.55727e-06
0.000129272
8.19469e-06
0.000129732
8.84723e-06
0.000130454
9.48559e-06
0.000131461
1.00689e-05
0.00013274
1.05462e-05
1.08629e-05
0.000134234
0.000159961
3.2936e-07
0.000159881
9.94156e-07
0.000159724
1.69797e-06
0.000159494
2.15684e-06
0.00015922
2.28706e-06
0.00015893
2.19063e-06
0.000158645
2.01637e-06
0.000158372
1.86404e-06
0.000158112
1.7683e-06
0.000157863
1.72359e-06
0.00015762
1.71132e-06
0.000157382
1.71486e-06
0.000157145
1.72387e-06
0.00015691
1.73336e-06
0.000156675
1.74163e-06
0.00015644
1.74859e-06
0.000156205
1.75469e-06
0.000155969
1.76051e-06
0.000155732
1.76656e-06
0.000155494
1.77325e-06
0.000155254
1.78085e-06
0.000155014
1.7896e-06
0.000154771
1.79965e-06
0.000154527
1.81109e-06
0.000154281
1.82399e-06
0.000154032
1.83835e-06
0.000153781
1.85416e-06
0.000153528
1.87134e-06
0.000153272
1.88981e-06
0.000153013
1.90946e-06
0.000152752
1.93017e-06
0.000152488
1.95181e-06
0.000152221
1.97426e-06
0.000151952
1.99743e-06
0.000151679
2.02123e-06
0.000151404
2.04558e-06
0.000151125
2.07047e-06
0.000150844
2.09587e-06
0.00015056
2.12181e-06
0.000150273
2.14833e-06
0.000149983
2.17551e-06
0.00014969
2.20346e-06
0.000149394
2.23231e-06
0.000149095
2.26222e-06
0.000148793
2.2934e-06
0.000148488
2.32605e-06
0.000148179
2.36046e-06
0.000147868
2.39693e-06
0.000147553
2.43579e-06
0.000147234
2.47744e-06
0.000146912
2.52234e-06
0.000146586
2.57098e-06
0.000146257
2.62394e-06
0.000145924
2.68188e-06
0.000145586
2.74552e-06
0.000145245
2.8157e-06
0.0001449
2.89335e-06
0.000144551
2.97954e-06
0.000144198
3.07545e-06
0.000143842
3.18243e-06
0.000143483
3.30198e-06
0.000143123
3.43577e-06
0.000142762
3.58563e-06
0.000142403
3.75358e-06
0.000142048
3.9418e-06
0.000141702
4.15256e-06
0.000141368
4.3882e-06
0.000141054
4.651e-06
0.000140769
4.94304e-06
0.000140523
5.26596e-06
0.000140332
5.62062e-06
0.000140212
6.00672e-06
0.000140185
6.42222e-06
0.000140276
6.86264e-06
0.000140513
7.32023e-06
0.000140925
7.78317e-06
0.000141537
8.23468e-06
0.00014237
8.65269e-06
0.000143429
9.0102e-06
0.000144698
9.27725e-06
9.42483e-06
0.000146136
0.000171172
3.4557e-07
0.000171105
1.06122e-06
0.000170963
1.83957e-06
0.000170747
2.37348e-06
0.000170476
2.55734e-06
0.000170181
2.48601e-06
0.000169883
2.31433e-06
0.000169595
2.15263e-06
0.000169319
2.04419e-06
0.000169054
1.98817e-06
0.000168798
1.96757e-06
0.000168547
1.96563e-06
0.0001683
1.97131e-06
0.000168054
1.97896e-06
0.000167809
1.98636e-06
0.000167565
1.9931e-06
0.00016732
1.99945e-06
0.000167075
2.00589e-06
0.000166828
2.01285e-06
0.000166581
2.02072e-06
0.000166332
2.02975e-06
0.000166082
2.04016e-06
0.000165829
2.05206e-06
0.000165575
2.06554e-06
0.000165318
2.08064e-06
0.000165059
2.09734e-06
0.000164798
2.1156e-06
0.000164534
2.13534e-06
0.000164267
2.15645e-06
0.000163998
2.17879e-06
0.000163726
2.20224e-06
0.000163451
2.22664e-06
0.000163173
2.25187e-06
0.000162893
2.27782e-06
0.00016261
2.30439e-06
0.000162324
2.33151e-06
0.000162035
2.35914e-06
0.000161744
2.38727e-06
0.00016145
2.41592e-06
0.000161153
2.44512e-06
0.000160853
2.47497e-06
0.000160551
2.50556e-06
0.000160247
2.53703e-06
0.000159939
2.56954e-06
0.000159629
2.6033e-06
0.000159317
2.63852e-06
0.000159002
2.67548e-06
0.000158684
2.71447e-06
0.000158364
2.75583e-06
0.000158042
2.79994e-06
0.000157717
2.84725e-06
0.00015739
2.89822e-06
0.00015706
2.9534e-06
0.000156729
3.01339e-06
0.000156395
3.07887e-06
0.000156061
3.15058e-06
0.000155725
3.22934e-06
0.000155388
3.31607e-06
0.000155052
3.41176e-06
0.000154717
3.51748e-06
0.000154384
3.63443e-06
0.000154056
3.76383e-06
0.000153735
3.907e-06
0.000153423
4.06528e-06
0.000153125
4.23999e-06
0.000152845
4.43238e-06
0.00015259
4.64354e-06
0.000152367
4.87425e-06
0.000152185
5.12486e-06
0.000152056
5.39505e-06
0.000151993
5.68359e-06
0.000152011
5.98806e-06
0.000152129
6.30446e-06
0.000152365
6.62693e-06
0.000152738
6.94736e-06
0.000153266
7.25516e-06
0.000153963
7.5372e-06
0.000154838
7.7781e-06
0.000155887
7.96095e-06
0.000157095
8.06883e-06
8.08682e-06
0.000158433
0.000183167
3.5783e-07
0.000183111
1.11707e-06
0.000182985
1.96579e-06
0.000182781
2.57688e-06
0.000182517
2.82172e-06
0.000182219
2.78415e-06
0.000181911
2.62186e-06
0.000181609
2.4546e-06
0.000181319
2.33467e-06
0.00018104
2.26695e-06
0.000180771
2.23692e-06
0.000180508
2.22829e-06
0.00018025
2.22963e-06
0.000179994
2.23467e-06
0.00017974
2.2407e-06
0.000179486
2.24691e-06
0.000179232
2.25335e-06
0.000178978
2.26035e-06
0.000178722
2.26826e-06
0.000178466
2.2774e-06
0.000178207
2.28799e-06
0.000177947
2.30019e-06
0.000177685
2.3141e-06
0.000177421
2.32977e-06
0.000177155
2.34721e-06
0.000176886
2.36638e-06
0.000176614
2.3872e-06
0.00017634
2.40957e-06
0.000176063
2.43335e-06
0.000175783
2.4584e-06
0.000175501
2.48455e-06
0.000175216
2.51166e-06
0.000174928
2.53957e-06
0.000174638
2.56817e-06
0.000174345
2.59736e-06
0.000174049
2.62705e-06
0.000173751
2.65719e-06
0.000173451
2.68778e-06
0.000173148
2.71882e-06
0.000172843
2.75036e-06
0.000172535
2.78246e-06
0.000172226
2.81523e-06
0.000171914
2.8488e-06
0.0001716
2.88332e-06
0.000171284
2.91899e-06
0.000170967
2.95602e-06
0.000170648
2.99465e-06
0.000170327
3.03518e-06
0.000170005
3.07791e-06
0.000169682
3.1232e-06
0.000169357
3.17143e-06
0.000169033
3.22305e-06
0.000168708
3.27853e-06
0.000168383
3.33837e-06
0.000168058
3.40316e-06
0.000167735
3.47351e-06
0.000167415
3.55007e-06
0.000167097
3.63355e-06
0.000166784
3.72469e-06
0.000166477
3.82425e-06
0.000166179
3.93302e-06
0.000165891
4.05178e-06
0.000165617
4.18125e-06
0.00016536
4.32211e-06
0.000165125
4.47487e-06
0.000164917
4.63986e-06
0.000164744
4.8171e-06
0.000164612
5.00622e-06
0.000164531
5.20631e-06
0.00016451
5.4158e-06
0.000164561
5.63227e-06
0.000164697
5.8523e-06
0.00016493
6.07134e-06
0.000165273
6.28356e-06
0.000165739
6.48182e-06
0.000166336
6.65774e-06
0.000167072
6.80188e-06
0.000167946
6.9042e-06
0.000168952
6.95467e-06
0.000170076
6.94415e-06
6.86546e-06
0.000171298
0.000196
3.67251e-07
0.000195954
1.16376e-06
0.000195841
2.07848e-06
0.00019565
2.76752e-06
0.000195393
3.07887e-06
0.000195095
3.08247e-06
0.000194781
2.93602e-06
0.000194468
2.76731e-06
0.000194165
2.63772e-06
0.000193874
2.55853e-06
0.000193592
2.51847e-06
0.000193318
2.5023e-06
0.000193049
2.49847e-06
0.000192784
2.50024e-06
0.00019252
2.50442e-06
0.000192257
2.5098e-06
0.000191994
2.51618e-06
0.000191731
2.52369e-06
0.000191467
2.53257e-06
0.000191201
2.54306e-06
0.000190934
2.5553e-06
0.000190664
2.56942e-06
0.000190393
2.58547e-06
0.000190119
2.60345e-06
0.000189843
2.62333e-06
0.000189565
2.64503e-06
0.000189283
2.66846e-06
0.000189
2.69348e-06
0.000188713
2.71992e-06
0.000188424
2.74761e-06
0.000188132
2.77638e-06
0.000187838
2.80607e-06
0.000187541
2.8365e-06
0.000187241
2.86755e-06
0.00018694
2.89911e-06
0.000186636
2.93108e-06
0.000186329
2.96341e-06
0.000186021
2.99608e-06
0.000185711
3.02909e-06
0.000185399
3.06248e-06
0.000185085
3.09629e-06
0.000184769
3.13063e-06
0.000184453
3.16561e-06
0.000184135
3.20137e-06
0.000183815
3.23808e-06
0.000183496
3.27593e-06
0.000183175
3.31515e-06
0.000182854
3.35597e-06
0.000182534
3.39867e-06
0.000182213
3.44355e-06
0.000181894
3.49094e-06
0.000181576
3.54119e-06
0.000181259
3.59469e-06
0.000180946
3.65183e-06
0.000180636
3.71305e-06
0.000180331
3.77878e-06
0.000180031
3.8495e-06
0.000179739
3.92565e-06
0.000179456
4.00769e-06
0.000179185
4.09605e-06
0.000178926
4.19111e-06
0.000178685
4.29318e-06
0.000178464
4.40246e-06
0.000178267
4.51901e-06
0.000178099
4.64268e-06
0.000177966
4.77307e-06
0.000177874
4.90943e-06
0.000177829
5.05062e-06
0.000177841
5.19502e-06
0.000177916
5.3404e-06
0.000178064
5.48393e-06
0.000178294
5.62206e-06
0.000178615
5.75051e-06
0.000179035
5.86429e-06
0.000179559
5.9578e-06
0.000180191
6.02497e-06
0.000180934
6.05951e-06
0.000181783
6.05528e-06
0.000182731
6.00671e-06
0.000183766
5.90927e-06
5.75991e-06
0.000184871
0.000209732
3.74921e-07
0.000209692
1.2036e-06
0.00020959
2.18008e-06
0.000209411
2.94657e-06
0.000209162
3.3281e-06
0.000208866
3.37879e-06
0.000208548
3.25396e-06
0.000208227
3.08799e-06
0.000207914
2.95107e-06
0.000207611
2.86126e-06
0.000207318
2.81111e-06
0.000207034
2.78691e-06
0.000206755
2.77733e-06
0.00020648
2.77533e-06
0.000206207
2.77727e-06
0.000205935
2.78157e-06
0.000205664
2.78774e-06
0.000205392
2.7957e-06
0.000205119
2.80557e-06
0.000204845
2.81744e-06
0.000204568
2.83142e-06
0.00020429
2.84753e-06
0.00020401
2.86579e-06
0.000203727
2.88614e-06
0.000203442
2.9085e-06
0.000203154
2.93277e-06
0.000202864
2.95879e-06
0.000202571
2.9864e-06
0.000202276
3.01541e-06
0.000201978
3.04562e-06
0.000201677
3.07685e-06
0.000201374
3.1089e-06
0.000201069
3.1416e-06
0.000200762
3.1748e-06
0.000200453
3.20839e-06
0.000200142
3.24225e-06
0.000199829
3.27633e-06
0.000199514
3.31059e-06
0.000199198
3.34501e-06
0.000198881
3.37961e-06
0.000198563
3.41445e-06
0.000198244
3.44958e-06
0.000197925
3.48511e-06
0.000197605
3.52114e-06
0.000197285
3.55781e-06
0.000196966
3.59529e-06
0.000196647
3.63374e-06
0.00019633
3.67336e-06
0.000196014
3.71437e-06
0.000195701
3.75699e-06
0.00019539
3.80147e-06
0.000195083
3.84805e-06
0.000194781
3.89701e-06
0.000194484
3.94861e-06
0.000194194
4.00311e-06
0.000193912
4.06078e-06
0.00019364
4.12184e-06
0.000193379
4.1865e-06
0.000193132
4.25494e-06
0.000192901
4.32724e-06
0.000192688
4.40342e-06
0.000192498
4.48338e-06
0.000192334
4.56689e-06
0.000192199
4.65353e-06
0.000192099
4.74267e-06
0.000192039
4.83341e-06
0.000192024
4.92457e-06
0.00019206
5.0146e-06
0.000192153
5.1016e-06
0.00019231
5.18323e-06
0.000192537
5.25675e-06
0.000192841
5.31898e-06
0.000193225
5.3664e-06
0.000193694
5.39515e-06
0.00019425
5.40121e-06
0.000194895
5.38054e-06
0.000195625
5.32925e-06
0.000196436
5.24393e-06
0.000197321
5.12178e-06
0.00019827
4.96096e-06
4.7606e-06
0.000199269
0.000224424
3.81776e-07
0.000224389
1.23882e-06
0.000224295
2.27311e-06
0.000224126
3.11564e-06
0.000223885
3.56933e-06
0.000223593
3.67147e-06
0.000223273
3.57315e-06
0.000222947
3.414e-06
0.000222626
3.27239e-06
0.000222314
3.17331e-06
0.000222012
3.11351e-06
0.000221717
3.0812e-06
0.000221429
3.06558e-06
0.000221145
3.05948e-06
0.000220863
3.05889e-06
0.000220583
3.06192e-06
0.000220303
3.06775e-06
0.000220023
3.07611e-06
0.000219741
3.08694e-06
0.000219459
3.10023e-06
0.000219174
3.11596e-06
0.000218888
3.1341e-06
0.000218599
3.15458e-06
0.000218308
3.17731e-06
0.000218014
3.20213e-06
0.000217718
3.2289e-06
0.000217419
3.25742e-06
0.000217118
3.2875e-06
0.000216815
3.31891e-06
0.000216509
3.35143e-06
0.000216201
3.38485e-06
0.000215891
3.41896e-06
0.000215579
3.45357e-06
0.000215265
3.48853e-06
0.00021495
3.52369e-06
0.000214633
3.55894e-06
0.000214315
3.5942e-06
0.000213996
3.62941e-06
0.000213677
3.66454e-06
0.000213357
3.69959e-06
0.000213037
3.73459e-06
0.000212717
3.76956e-06
0.000212397
3.80458e-06
0.000212079
3.83971e-06
0.000211762
3.87507e-06
0.000211446
3.91075e-06
0.000211133
3.94688e-06
0.000210823
3.98358e-06
0.000210516
4.021e-06
0.000210214
4.05927e-06
0.000209917
4.09853e-06
0.000209626
4.13894e-06
0.000209342
4.18061e-06
0.000209067
4.22366e-06
0.000208802
4.26819e-06
0.000208549
4.31427e-06
0.000208309
4.36191e-06
0.000208084
4.41108e-06
0.000207877
4.46169e-06
0.000207691
4.51355e-06
0.000207528
4.56638e-06
0.000207392
4.61977e-06
0.000207285
4.67317e-06
0.000207213
4.72584e-06
0.000207179
4.77687e-06
0.000207187
4.82512e-06
0.000207243
4.86923e-06
0.00020735
4.90759e-06
0.000207513
4.93831e-06
0.000207737
4.9593e-06
0.000208025
4.96821e-06
0.000208382
4.96251e-06
0.000208809
4.93953e-06
0.000209307
4.89658e-06
0.000209877
4.831e-06
0.000210518
4.74034e-06
0.000211224
4.62247e-06
0.000211993
4.47573e-06
0.000212815
4.29906e-06
0.000213684
4.09208e-06
3.85509e-06
0.00021459
0.000240144
3.88528e-07
0.000240112
1.27133e-06
0.000240025
2.36e-06
0.000239864
3.27649e-06
0.00023963
3.8029e-06
0.000239342
3.95939e-06
0.000239024
3.89153e-06
0.000238695
3.74291e-06
0.000238368
3.59941e-06
0.000238049
3.49279e-06
0.000237738
3.42421e-06
0.000237435
3.38409e-06
0.000237138
3.36243e-06
0.000236846
3.35208e-06
0.000236556
3.34882e-06
0.000236267
3.35042e-06
0.000235979
3.35582e-06
0.000235691
3.36452e-06
0.000235402
3.37628e-06
0.000235111
3.39095e-06
0.000234818
3.40842e-06
0.000234524
3.42856e-06
0.000234227
3.45123e-06
0.000233928
3.47625e-06
0.000233627
3.50343e-06
0.000233324
3.53256e-06
0.000233018
3.5634e-06
0.000232709
3.59572e-06
0.000232399
3.62926e-06
0.000232087
3.66378e-06
0.000231772
3.69904e-06
0.000231457
3.73481e-06
0.000231139
3.77088e-06
0.000230821
3.80708e-06
0.000230501
3.84324e-06
0.000230181
3.87924e-06
0.00022986
3.91497e-06
0.000229539
3.95036e-06
0.000229218
3.98535e-06
0.000228898
4.01991e-06
0.000228579
4.05403e-06
0.000228261
4.08772e-06
0.000227944
4.121e-06
0.00022763
4.15389e-06
0.000227319
4.18645e-06
0.000227011
4.21873e-06
0.000226707
4.25077e-06
0.000226408
4.28263e-06
0.000226114
4.31437e-06
0.000225828
4.34602e-06
0.000225548
4.37763e-06
0.000225278
4.40921e-06
0.000225018
4.44076e-06
0.00022477
4.47224e-06
0.000224534
4.5036e-06
0.000224314
4.53471e-06
0.00022411
4.56541e-06
0.000223926
4.59547e-06
0.000223763
4.62459e-06
0.000223624
4.65237e-06
0.000223512
4.67832e-06
0.00022343
4.70182e-06
0.000223381
4.72214e-06
0.000223369
4.73841e-06
0.000223396
4.7496e-06
0.000223466
4.75454e-06
0.000223584
4.7519e-06
0.000223751
4.74021e-06
0.000223972
4.71786e-06
0.000224248
4.68312e-06
0.000224582
4.63419e-06
0.000224975
4.56924e-06
0.000225428
4.48644e-06
0.000225941
4.38408e-06
0.000226511
4.2606e-06
0.000227137
4.1147e-06
0.000227814
3.94543e-06
0.000228537
3.75227e-06
0.000229301
3.53516e-06
0.000230099
3.29453e-06
3.03121e-06
0.000230923
0.000256965
3.95676e-07
0.000256934
1.30267e-06
0.000256851
2.44283e-06
0.000256697
3.43084e-06
0.00025647
4.02942e-06
0.000256188
4.24186e-06
0.000255872
4.20745e-06
0.000255542
4.07261e-06
0.000255211
3.93e-06
0.000254886
3.81779e-06
0.000254569