/*--------------------------------*- C++ -*----------------------------------*\
| =========                 |                                                 |
| \\      /  F ield         | OpenFOAM: The Open Source CFD Toolbox           |
|  \\    /   O peration     | Version:  4.1                                   |
|   \\  /    A nd           | Web:      www.OpenFOAM.org                      |
|    \\/     M anipulation  |                                                 |
\*---------------------------------------------------------------------------*/
FoamFile
{
    version     2.0;
    format      ascii;
    class       volVectorField;
    location    "0.4";
    object      U;
}
// * * * * * * * * * * * * * * * * * * * * * * * * * * * * * * * * * * * * * //

dimensions      [0 1 -1 0 0 0 0];

internalField   nonuniform List<vector> 
12013
(
(0.0999917 4.32104e-06 0)
(0.0999156 1.18167e-05 0)
(0.0997491 1.92146e-05 0)
(0.0995238 2.31979e-05 0)
(0.0992852 2.33383e-05 0)
(0.0990656 2.13071e-05 0)
(0.0988747 1.90054e-05 0)
(0.0987067 1.749e-05 0)
(0.098551 1.69495e-05 0)
(0.0983992 1.71261e-05 0)
(0.0982467 1.76818e-05 0)
(0.0980914 1.83706e-05 0)
(0.0979333 1.90608e-05 0)
(0.0977728 1.97036e-05 0)
(0.0976105 2.02937e-05 0)
(0.0974469 2.08435e-05 0)
(0.0972825 2.1369e-05 0)
(0.0971174 2.18843e-05 0)
(0.0969517 2.24017e-05 0)
(0.0967855 2.29303e-05 0)
(0.0966188 2.34774e-05 0)
(0.0964514 2.4049e-05 0)
(0.0962834 2.46504e-05 0)
(0.0961145 2.52857e-05 0)
(0.0959446 2.59595e-05 0)
(0.0957736 2.66744e-05 0)
(0.0956013 2.74333e-05 0)
(0.0954276 2.82377e-05 0)
(0.0952523 2.9089e-05 0)
(0.0950752 2.99875e-05 0)
(0.0948962 3.09332e-05 0)
(0.0947152 3.19261e-05 0)
(0.0945321 3.29657e-05 0)
(0.0943467 3.40521e-05 0)
(0.094159 3.5185e-05 0)
(0.0939689 3.63649e-05 0)
(0.0937763 3.75929e-05 0)
(0.0935812 3.88707e-05 0)
(0.0933834 4.02003e-05 0)
(0.093183 4.15849e-05 0)
(0.0929797 4.30289e-05 0)
(0.0927735 4.45373e-05 0)
(0.0925643 4.61164e-05 0)
(0.092352 4.77736e-05 0)
(0.0921364 4.95182e-05 0)
(0.0919173 5.13611e-05 0)
(0.0916945 5.33147e-05 0)
(0.0914677 5.53947e-05 0)
(0.0912367 5.76187e-05 0)
(0.0910011 6.0008e-05 0)
(0.0907604 6.25878e-05 0)
(0.0905142 6.53882e-05 0)
(0.0902619 6.84447e-05 0)
(0.0900028 7.18002e-05 0)
(0.0897362 7.55059e-05 0)
(0.089461 7.96239e-05 0)
(0.0891763 8.42289e-05 0)
(0.0888806 8.94132e-05 0)
(0.0885724 9.52893e-05 0)
(0.08825 0.000101998 0)
(0.087911 0.000109712 0)
(0.0875529 0.000118654 0)
(0.0871723 0.000129105 0)
(0.0867653 0.000141424 0)
(0.0863271 0.000156084 0)
(0.0858515 0.000173703 0)
(0.0853309 0.000195111 0)
(0.0847555 0.00022143 0)
(0.0841128 0.000254209 0)
(0.0833862 0.000295621 0)
(0.0825541 0.000348767 0)
(0.0815868 0.000418163 0)
(0.0804439 0.000510517 0)
(0.0790684 0.000635992 0)
(0.0773794 0.000810309 0)
(0.0752595 0.00105827 0)
(0.0725355 0.0014198 0)
(0.0689347 0.00196237 0)
(0.0640368 0.00282037 0)
(0.0573547 0.00436707 0)
(0.0498677 0.00828176 0)
(0.0999929 1.31253e-05 0)
(0.0999185 3.60964e-05 0)
(0.0997545 5.87926e-05 0)
(0.0995314 7.10618e-05 0)
(0.0992942 7.15619e-05 0)
(0.0990752 6.53907e-05 0)
(0.0988843 5.83641e-05 0)
(0.0987158 5.37263e-05 0)
(0.0985597 5.20637e-05 0)
(0.0984078 5.25923e-05 0)
(0.0982551 5.42832e-05 0)
(0.0980999 5.63836e-05 0)
(0.097942 5.84911e-05 0)
(0.0977817 6.04559e-05 0)
(0.0976198 6.22615e-05 0)
(0.0974566 6.39455e-05 0)
(0.0972926 6.55554e-05 0)
(0.0971278 6.71361e-05 0)
(0.0969626 6.87234e-05 0)
(0.0967968 7.03453e-05 0)
(0.0966305 7.20242e-05 0)
(0.0964635 7.37785e-05 0)
(0.0962959 7.56244e-05 0)
(0.0961274 7.75752e-05 0)
(0.0959579 7.96431e-05 0)
(0.0957873 8.18376e-05 0)
(0.0956153 8.41665e-05 0)
(0.095442 8.6635e-05 0)
(0.095267 8.92468e-05 0)
(0.0950903 9.20034e-05 0)
(0.0949117 9.49048e-05 0)
(0.0947311 9.79504e-05 0)
(0.0945483 0.000101139 0)
(0.0943634 0.000104471 0)
(0.0941761 0.000107946 0)
(0.0939864 0.000111564 0)
(0.0937942 0.00011533 0)
(0.0935996 0.000119248 0)
(0.0934023 0.000123324 0)
(0.0932023 0.000127569 0)
(0.0929995 0.000131996 0)
(0.0927939 0.000136619 0)
(0.0925852 0.000141459 0)
(0.0923735 0.000146538 0)
(0.0921585 0.000151885 0)
(0.0919401 0.000157531 0)
(0.0917179 0.000163516 0)
(0.0914919 0.000169887 0)
(0.0912617 0.000176698 0)
(0.0910269 0.000184014 0)
(0.0907871 0.000191911 0)
(0.0905419 0.000200482 0)
(0.0902907 0.000209834 0)
(0.0900329 0.000220097 0)
(0.0897675 0.000231428 0)
(0.0894939 0.000244014 0)
(0.0892108 0.000258083 0)
(0.0889171 0.000273913 0)
(0.0886112 0.000291846 0)
(0.0882913 0.000312305 0)
(0.0879554 0.000335816 0)
(0.0876009 0.000363045 0)
(0.0872247 0.000394833 0)
(0.086823 0.000432263 0)
(0.0863914 0.000476738 0)
(0.085924 0.000530104 0)
(0.085414 0.000594809 0)
(0.0848523 0.000674162 0)
(0.0842277 0.000772689 0)
(0.0835257 0.000896684 0)
(0.0827275 0.00105505 0)
(0.0818083 0.00126056 0)
(0.0807352 0.00153191 0)
(0.0794643 0.00189677 0)
(0.0779367 0.00239666 0)
(0.0760742 0.00309426 0)
(0.0737753 0.0040836 0)
(0.0709071 0.00550313 0)
(0.0673242 0.00755127 0)
(0.0630824 0.0104467 0)
(0.0593661 0.0140217 0)
(0.0999939 2.2051e-05 0)
(0.099923 6.13542e-05 0)
(0.0997648 0.000100294 0)
(0.0995473 0.000121583 0)
(0.0993139 0.000122776 0)
(0.0990964 0.000112472 0)
(0.0989052 0.000100575 0)
(0.0987358 9.26603e-05 0)
(0.0985787 8.97763e-05 0)
(0.0984261 9.06206e-05 0)
(0.0982732 9.34579e-05 0)
(0.0981181 9.70082e-05 0)
(0.0979606 0.000100586 0)
(0.097801 0.000103932 0)
(0.0976398 0.000107015 0)
(0.0974774 0.000109897 0)
(0.0973143 0.000112657 0)
(0.0971504 0.000115372 0)
(0.0969861 0.0001181 0)
(0.0968212 0.000120889 0)
(0.0966557 0.000123778 0)
(0.0964896 0.000126798 0)
(0.0963228 0.000129976 0)
(0.0961551 0.000133334 0)
(0.0959864 0.000136893 0)
(0.0958166 0.00014067 0)
(0.0956455 0.000144677 0)
(0.0954729 0.000148923 0)
(0.0952987 0.000153415 0)
(0.0951228 0.000158154 0)
(0.094945 0.000163141 0)
(0.0947651 0.000168375 0)
(0.0945832 0.000173855 0)
(0.0943991 0.000179578 0)
(0.0942126 0.000185546 0)
(0.0940238 0.000191761 0)
(0.0938326 0.000198226 0)
(0.0936389 0.000204952 0)
(0.0934426 0.000211949 0)
(0.0932436 0.000219235 0)
(0.0930419 0.000226831 0)
(0.0928374 0.000234764 0)
(0.0926299 0.000243065 0)
(0.0924194 0.000251776 0)
(0.0922057 0.000260943 0)
(0.0919886 0.000270621 0)
(0.0917679 0.000280877 0)
(0.0915434 0.00029179 0)
(0.0913148 0.000303453 0)
(0.0910817 0.000315975 0)
(0.0908438 0.000329486 0)
(0.0906007 0.000344141 0)
(0.0903517 0.000360123 0)
(0.0900962 0.000377651 0)
(0.0898336 0.000396988 0)
(0.0895629 0.000418449 0)
(0.0892832 0.000442417 0)
(0.0889932 0.000469357 0)
(0.0886916 0.000499839 0)
(0.0883767 0.000534567 0)
(0.0880466 0.000574416 0)
(0.0876989 0.000620482 0)
(0.0873309 0.00067415 0)
(0.0869391 0.000737188 0)
(0.0865196 0.000811875 0)
(0.0860673 0.000901177 0)
(0.0855763 0.001009 0)
(0.0850391 0.00114057 0)
(0.0844466 0.0013029 0)
(0.0837874 0.00150561 0)
(0.0830474 0.00176202 0)
(0.0822092 0.00209073 0)
(0.0812513 0.00251804 0)
(0.0801482 0.00308124 0)
(0.0788706 0.00383304 0)
(0.0773886 0.00484674 0)
(0.0756796 0.00621972 0)
(0.0737436 0.00806899 0)
(0.0716429 0.010505 0)
(0.0696218 0.0135155 0)
(0.0683189 0.0165209 0)
(0.0999948 3.08449e-05 0)
(0.0999293 8.70289e-05 0)
(0.0997803 0.000142993 0)
(0.0995719 0.000174187 0)
(0.0993448 0.000176743 0)
(0.0991299 0.000162638 0)
(0.0989385 0.000145929 0)
(0.0987676 0.000134646 0)
(0.098609 0.000130412 0)
(0.0984553 0.00013147 0)
(0.098302 0.000135394 0)
(0.0981472 0.000140376 0)
(0.0979904 0.000145436 0)
(0.0978318 0.000150197 0)
(0.0976718 0.000154604 0)
(0.0975107 0.000158739 0)
(0.0973489 0.000162712 0)
(0.0971865 0.000166627 0)
(0.0970236 0.000170569 0)
(0.0968601 0.000174604 0)
(0.096696 0.000178786 0)
(0.0965313 0.00018316 0)
(0.0963658 0.000187762 0)
(0.0961995 0.000192627 0)
(0.0960321 0.000197781 0)
(0.0958635 0.000203248 0)
(0.0956937 0.000209047 0)
(0.0955223 0.00021519 0)
(0.0953494 0.000221685 0)
(0.0951747 0.000228535 0)
(0.0949981 0.000235741 0)
(0.0948196 0.000243301 0)
(0.0946389 0.000251212 0)
(0.0944561 0.000259474 0)
(0.0942711 0.000268086 0)
(0.0940837 0.000277051 0)
(0.0938939 0.000286377 0)
(0.0937017 0.000296075 0)
(0.0935069 0.000306162 0)
(0.0933096 0.000316663 0)
(0.0931096 0.000327607 0)
(0.0929069 0.000339034 0)
(0.0927013 0.000350989 0)
(0.0924927 0.000363528 0)
(0.0922811 0.000376718 0)
(0.0920661 0.00039064 0)
(0.0918477 0.000405386 0)
(0.0916256 0.000421068 0)
(0.0913996 0.000437818 0)
(0.0911693 0.00045579 0)
(0.0909344 0.000475169 0)
(0.0906945 0.000496171 0)
(0.090449 0.000519054 0)
(0.0901973 0.000544127 0)
(0.0899389 0.000571756 0)
(0.0896729 0.000602382 0)
(0.0893984 0.000636539 0)
(0.0891143 0.000674871 0)
(0.0888195 0.000718167 0)
(0.0885123 0.000767395 0)
(0.0881912 0.000823753 0)
(0.087854 0.000888729 0)
(0.0874985 0.000964196 0)
(0.0871218 0.00105252 0)
(0.0867206 0.00115672 0)
(0.0862909 0.00128069 0)
(0.0858281 0.00142947 0)
(0.0853268 0.00160967 0)
(0.0847806 0.00183006 0)
(0.0841821 0.00210229 0)
(0.0835229 0.00244205 0)
(0.0827941 0.00287047 0)
(0.0819869 0.00341602 0)
(0.0810939 0.00411675 0)
(0.0801129 0.00502237 0)
(0.0790526 0.00619475 0)
(0.0779426 0.00770303 0)
(0.0768492 0.00960551 0)
(0.0758959 0.0119043 0)
(0.075287 0.0144386 0)
(0.0752684 0.0166589 0)
(0.0999957 3.92765e-05 0)
(0.0999372 0.000112427 0)
(0.0998004 0.000185981 0)
(0.0996048 0.000228117 0)
(0.0993866 0.000233099 0)
(0.0991756 0.000215926 0)
(0.0989842 0.000194714 0)
(0.0988115 0.000180061 0)
(0.0986509 0.000174325 0)
(0.0984958 0.000175417 0)
(0.0983421 0.000180286 0)
(0.0981876 0.000186612 0)
(0.0980318 0.000193117 0)
(0.0978746 0.00019929 0)
(0.0977163 0.000205047 0)
(0.0975572 0.000210478 0)
(0.0973973 0.00021572 0)
(0.0972369 0.000220903 0)
(0.097076 0.000226133 0)
(0.0969144 0.000231495 0)
(0.0967523 0.000237059 0)
(0.0965895 0.00024288 0)
(0.0964259 0.000249007 0)
(0.0962614 0.000255483 0)
(0.0960958 0.000262343 0)
(0.095929 0.000269617 0)
(0.0957609 0.000277327 0)
(0.0955913 0.00028549 0)
(0.0954201 0.000294115 0)
(0.0952472 0.000303207 0)
(0.0950724 0.000312766 0)
(0.0948956 0.000322788 0)
(0.0947168 0.000333272 0)
(0.0945359 0.000344216 0)
(0.0943528 0.000355618 0)
(0.0941674 0.000367484 0)
(0.0939797 0.000379824 0)
(0.0937896 0.00039265 0)
(0.0935971 0.000405988 0)
(0.093402 0.000419867 0)
(0.0932045 0.000434328 0)
(0.0930042 0.000449419 0)
(0.0928013 0.000465201 0)
(0.0925955 0.000481747 0)
(0.0923867 0.000499143 0)
(0.0921749 0.000517492 0)
(0.0919597 0.000536916 0)
(0.0917411 0.000557557 0)
(0.0915187 0.000579587 0)
(0.0912923 0.000603202 0)
(0.0910616 0.00062864 0)
(0.0908262 0.000656178 0)
(0.0905856 0.000686146 0)
(0.0903394 0.000718935 0)
(0.0900869 0.000755011 0)
(0.0898275 0.000794932 0)
(0.0895603 0.000839369 0)
(0.0892845 0.000889131 0)
(0.0889991 0.000945199 0)
(0.0887027 0.00100877 0)
(0.0883941 0.00108132 0)
(0.0880715 0.00116466 0)
(0.0877332 0.00126105 0)
(0.087377 0.00137332 0)
(0.0870006 0.001505 0)
(0.0866012 0.00166061 0)
(0.0861759 0.00184588 0)
(0.0857214 0.00206815 0)
(0.0852345 0.00233689 0)
(0.0847119 0.00266431 0)
(0.0841512 0.00306621 0)
(0.0835514 0.0035629 0)
(0.0829144 0.00418019 0)
(0.0822472 0.00495012 0)
(0.081566 0.00591062 0)
(0.0809008 0.00710245 0)
(0.0803025 0.00856038 0)
(0.0798498 0.0102932 0)
(0.0796508 0.0122456 0)
(0.0798277 0.0142365 0)
(0.0804464 0.0158849 0)
(0.0999967 4.70831e-05 0)
(0.0999462 0.000136799 0)
(0.0998243 0.000228249 0)
(0.0996444 0.000282491 0)
(0.0994377 0.000291361 0)
(0.099232 0.000272282 0)
(0.0990412 0.000247171 0)
(0.0988667 0.000229261 0)
(0.0987038 0.000221859 0)
(0.0985473 0.000222732 0)
(0.0983932 0.000228318 0)
(0.0982394 0.000235826 0)
(0.0980849 0.000243681 0)
(0.0979296 0.000251228 0)
(0.0977735 0.000258335 0)
(0.0976167 0.000265092 0)
(0.0974593 0.000271651 0)
(0.0973015 0.000278164 0)
(0.0971431 0.000284757 0)
(0.0969841 0.000291531 0)
(0.0968245 0.000298568 0)
(0.0966642 0.000305938 0)
(0.096503 0.000313697 0)
(0.0963408 0.000321896 0)
(0.0961776 0.000330579 0)
(0.0960131 0.00033978 0)
(0.0958473 0.000349525 0)
(0.0956799 0.000359835 0)
(0.095511 0.000370721 0)
(0.0953403 0.000382186 0)
(0.0951678 0.00039423 0)
(0.0949934 0.000406851 0)
(0.094817 0.000420044 0)
(0.0946385 0.000433807 0)
(0.0944579 0.00044814 0)
(0.0942752 0.000463048 0)
(0.0940902 0.000478543 0)
(0.0939029 0.000494643 0)
(0.0937133 0.000511376 0)
(0.0935213 0.000528781 0)
(0.0933269 0.000546905 0)
(0.0931299 0.000565809 0)
(0.0929304 0.000585567 0)
(0.0927283 0.000606268 0)
(0.0925233 0.000628017 0)
(0.0923155 0.00065094 0)
(0.0921046 0.000675184 0)
(0.0918904 0.000700923 0)
(0.0916729 0.000728362 0)
(0.0914517 0.000757741 0)
(0.0912265 0.000789344 0)
(0.090997 0.000823505 0)
(0.090763 0.000860618 0)
(0.0905238 0.000901148 0)
(0.0902791 0.000945649 0)
(0.0900284 0.00099478 0)
(0.0897709 0.00104933 0)
(0.0895059 0.00111023 0)
(0.0892327 0.00117864 0)
(0.0889504 0.00125591 0)
(0.0886579 0.00134373 0)
(0.0883541 0.00144414 0)
(0.0880378 0.00155964 0)
(0.0877076 0.00169331 0)
(0.0873623 0.00184897 0)
(0.0870004 0.00203134 0)
(0.0866208 0.00224633 0)
(0.0862225 0.00250125 0)
(0.0858051 0.00280524 0)
(0.0853693 0.00316963 0)
(0.0849175 0.00360837 0)
(0.0844549 0.00413841 0)
(0.0839908 0.0047798 0)
(0.0835409 0.00555521 0)
(0.0831296 0.00648811 0)
(0.0827936 0.00759856 0)
(0.0825837 0.00889463 0)
(0.0825657 0.0103575 0)
(0.0828127 0.0119185 0)
(0.0833842 0.013433 0)
(0.0842785 0.0146663 0)
(0.0999976 5.40169e-05 0)
(0.0999558 0.000159434 0)
(0.0998504 0.000268804 0)
(0.0996884 0.000336376 0)
(0.0994952 0.000350945 0)
(0.0992964 0.000331531 0)
(0.0991071 0.000303426 0)
(0.0989312 0.000282518 0)
(0.0987665 0.000273302 0)
(0.0986087 0.00027365 0)
(0.0984544 0.000279648 0)
(0.0983014 0.000288105 0)
(0.0981486 0.00029716 0)
(0.0979956 0.000306003 0)
(0.0978422 0.000314434 0)
(0.0976883 0.000322529 0)
(0.097534 0.000330445 0)
(0.0973792 0.000338347 0)
(0.0972239 0.000346377 0)
(0.097068 0.00035465 0)
(0.0969114 0.000363258 0)
(0.0967541 0.000372281 0)
(0.0965959 0.000381785 0)
(0.0964366 0.000391826 0)
(0.0962762 0.000402453 0)
(0.0961145 0.000413706 0)
(0.0959515 0.000425616 0)
(0.0957869 0.000438202 0)
(0.0956208 0.000451477 0)
(0.0954529 0.000465446 0)
(0.0952833 0.000480106 0)
(0.0951117 0.000495455 0)
(0.0949383 0.000511486 0)
(0.0947629 0.000528197 0)
(0.0945854 0.000545588 0)
(0.0944058 0.000563665 0)
(0.0942242 0.000582441 0)
(0.0940404 0.00060194 0)
(0.0938544 0.000622194 0)
(0.0936662 0.000643247 0)
(0.0934757 0.000665155 0)
(0.0932829 0.00068799 0)
(0.0930877 0.000711839 0)
(0.09289 0.000736804 0)
(0.0926898 0.000763009 0)
(0.092487 0.000790599 0)
(0.0922814 0.000819745 0)
(0.0920729 0.000850649 0)
(0.0918614 0.000883546 0)
(0.0916466 0.000918714 0)
(0.0914284 0.000956476 0)
(0.0912064 0.000997214 0)
(0.0909805 0.00104137 0)
(0.0907502 0.00108948 0)
(0.0905153 0.00114217 0)
(0.0902753 0.00120016 0)
(0.0900298 0.00126432 0)
(0.0897783 0.0013357 0)
(0.0895203 0.00141554 0)
(0.0892552 0.00150531 0)
(0.0889825 0.0016068 0)
(0.0887016 0.00172213 0)
(0.0884118 0.00185391 0)
(0.0881128 0.00200524 0)
(0.0878042 0.0021799 0)
(0.087486 0.00238245 0)
(0.0871586 0.00261841 0)
(0.0868231 0.00289439 0)
(0.0864815 0.00321832 0)
(0.0861376 0.00359955 0)
(0.085797 0.00404893 0)
(0.0854688 0.00457871 0)
(0.085166 0.00520208 0)
(0.0849072 0.00593204 0)
(0.0847179 0.00677931 0)
(0.0846314 0.00774847 0)
(0.0846889 0.00883184 0)
(0.084936 0.0100006 0)
(0.0854154 0.0111941 0)
(0.0861502 0.0123117 0)
(0.0871198 0.0132166 0)
(0.0999984 5.99022e-05 0)
(0.0999652 0.000179769 0)
(0.0998766 0.000306791 0)
(0.0997336 0.000388891 0)
(0.0995555 0.000411201 0)
(0.0993652 0.000393357 0)
(0.0991788 0.000363445 0)
(0.0990025 0.00033996 0)
(0.0988365 0.000328834 0)
(0.0986779 0.000328335 0)
(0.0985238 0.000334392 0)
(0.0983721 0.000343509 0)
(0.0982214 0.000353565 0)
(0.0980711 0.000363589 0)
(0.0979208 0.000373295 0)
(0.0977702 0.000382722 0)
(0.0976194 0.000392025 0)
(0.0974682 0.000401373 0)
(0.0973164 0.000410913 0)
(0.0971641 0.000420772 0)
(0.097011 0.000431052 0)
(0.0968572 0.000441837 0)
(0.0967023 0.000453201 0)
(0.0965465 0.000465206 0)
(0.0963894 0.000477904 0)
(0.096231 0.000491339 0)
(0.0960712 0.000505541 0)
(0.0959099 0.000520532 0)
(0.0957471 0.000536325 0)
(0.0955825 0.000552922 0)
(0.0954162 0.000570322 0)
(0.0952481 0.000588519 0)
(0.0950782 0.000607506 0)
(0.0949064 0.00062728 0)
(0.0947326 0.000647841 0)
(0.0945569 0.000669196 0)
(0.0943793 0.000691361 0)
(0.0941996 0.00071436 0)
(0.094018 0.000738231 0)
(0.0938342 0.000763024 0)
(0.0936484 0.000788803 0)
(0.0934606 0.000815648 0)
(0.0932705 0.000843655 0)
(0.0930783 0.000872943 0)
(0.0928838 0.000903647 0)
(0.092687 0.000935931 0)
(0.0924878 0.000969985 0)
(0.0922861 0.00100603 0)
(0.0920818 0.00104434 0)
(0.0918748 0.0010852 0)
(0.0916649 0.00112897 0)
(0.0914519 0.00117608 0)
(0.0912358 0.001227 0)
(0.0910162 0.00128231 0)
(0.090793 0.00134266 0)
(0.0905659 0.00140885 0)
(0.0903348 0.00148177 0)
(0.0900993 0.00156253 0)
(0.0898594 0.00165237 0)
(0.0896147 0.00175282 0)
(0.0893651 0.00186564 0)
(0.0891107 0.00199293 0)
(0.0888515 0.00213717 0)
(0.0885878 0.00230129 0)
(0.0883204 0.00248873 0)
(0.0880502 0.00270352 0)
(0.0877791 0.00295037 0)
(0.0875097 0.00323466 0)
(0.0872458 0.00356253 0)
(0.0869929 0.00394077 0)
(0.0867585 0.00437665 0)
(0.086553 0.00487758 0)
(0.08639 0.00545036 0)
(0.0862872 0.00610007 0)
(0.0862664 0.00682823 0)
(0.0863536 0.00763015 0)
(0.0865777 0.00849133 0)
(0.0869665 0.00938321 0)
(0.0875418 0.0102594 0)
(0.0883088 0.0110547 0)
(0.089246 0.0116914 0)
(0.099999 6.46743e-05 0)
(0.0999737 0.000197472 0)
(0.0999012 0.000341613 0)
(0.099777 0.000439306 0)
(0.0996147 0.000471466 0)
(0.0994344 0.000457299 0)
(0.0992524 0.000426993 0)
(0.0990773 0.000401523 0)
(0.0989111 0.000388487 0)
(0.0987525 0.000386846 0)
(0.0985993 0.000392597 0)
(0.0984493 0.000402059 0)
(0.0983011 0.000412889 0)
(0.0981539 0.00042395 0)
(0.098007 0.000434859 0)
(0.0978602 0.000445602 0)
(0.0977132 0.000456313 0)
(0.0975659 0.000467154 0)
(0.0974181 0.000478277 0)
(0.0972697 0.000489811 0)
(0.0971205 0.000501862 0)
(0.0969705 0.000514521 0)
(0.0968195 0.000527864 0)
(0.0966674 0.000541957 0)
(0.0965141 0.000556853 0)
(0.0963594 0.000572596 0)
(0.0962033 0.000589218 0)
(0.0960458 0.00060674 0)
(0.0958866 0.000625172 0)
(0.0957259 0.000644516 0)
(0.0955634 0.000664769 0)
(0.0953993 0.000685922 0)
(0.0952334 0.000707968 0)
(0.0950657 0.000730903 0)
(0.0948963 0.000754725 0)
(0.0947251 0.000779443 0)
(0.094552 0.000805074 0)
(0.0943772 0.000831645 0)
(0.0942005 0.000859196 0)
(0.094022 0.000887783 0)
(0.0938417 0.000917475 0)
(0.0936595 0.000948359 0)
(0.0934755 0.00098054 0)
(0.0932895 0.00101414 0)
(0.0931017 0.00104932 0)
(0.0929119 0.00108624 0)
(0.0927202 0.00112512 0)
(0.0925264 0.00116618 0)
(0.0923306 0.00120971 0)
(0.0921326 0.00125603 0)
(0.0919324 0.00130551 0)
(0.09173 0.00135859 0)
(0.0915252 0.00141577 0)
(0.0913181 0.00147763 0)
(0.0911085 0.00154485 0)
(0.0908964 0.00161822 0)
(0.0906818 0.00169865 0)
(0.0904648 0.0017872 0)
(0.0902454 0.0018851 0)
(0.0900239 0.00199379 0)
(0.0898004 0.00211492 0)
(0.0895755 0.00225041 0)
(0.08935 0.00240247 0)
(0.0891247 0.00257362 0)
(0.0889011 0.00276675 0)
(0.0886813 0.00298508 0)
(0.0884678 0.00323221 0)
(0.0882643 0.00351204 0)
(0.0880755 0.00382868 0)
(0.0879077 0.00418629 0)
(0.0877686 0.00458877 0)
(0.0876682 0.00503935 0)
(0.0876187 0.00553988 0)
(0.0876346 0.00608997 0)
(0.0877324 0.0066857 0)
(0.0879302 0.00731816 0)
(0.0882457 0.0079717 0)
(0.0886942 0.00862242 0)
(0.0892846 0.00923747 0)
(0.0900147 0.0097763 0)
(0.0908667 0.0101952 0)
(0.0999995 6.83882e-05 0)
(0.0999808 0.000212486 0)
(0.0999225 0.000373001 0)
(0.099816 0.000487121 0)
(0.0996697 0.000531127 0)
(0.0995005 0.000522783 0)
(0.0993246 0.000493635 0)
(0.0991523 0.000466938 0)
(0.0989874 0.00045212 0)
(0.0988299 0.000449121 0)
(0.0986782 0.000454237 0)
(0.0985305 0.000463732 0)
(0.0983853 0.000475099 0)
(0.0982414 0.000487043 0)
(0.0980983 0.00049907 0)
(0.0979555 0.000511101 0)
(0.0978127 0.000523234 0)
(0.0976696 0.000535613 0)
(0.097526 0.000548387 0)
(0.0973818 0.000561681 0)
(0.0972369 0.000575604 0)
(0.0970911 0.000590247 0)
(0.0969442 0.000605687 0)
(0.0967962 0.000621989 0)
(0.096647 0.000639207 0)
(0.0964964 0.000657382 0)
(0.0963444 0.000676545 0)
(0.0961909 0.000696714 0)
(0.096036 0.000717898 0)
(0.0958794 0.000740095 0)
(0.0957213 0.000763298 0)
(0.0955616 0.000787499 0)
(0.0954003 0.000812687 0)
(0.0952373 0.000838856 0)
(0.0950727 0.000866006 0)
(0.0949065 0.000894143 0)
(0.0947387 0.000923285 0)
(0.0945693 0.000953462 0)
(0.0943982 0.000984716 0)
(0.0942257 0.0010171 0)
(0.0940515 0.0010507 0)
(0.0938758 0.00108559 0)
(0.0936986 0.00112189 0)
(0.0935199 0.00115973 0)
(0.0933396 0.00119927 0)
(0.0931578 0.00124068 0)
(0.0929745 0.00128418 0)
(0.0927898 0.00133 0)
(0.0926036 0.00137844 0)
(0.0924159 0.00142982 0)
(0.0922268 0.00148451 0)
(0.0920363 0.00154295 0)
(0.0918445 0.00160563 0)
(0.0916514 0.00167312 0)
(0.0914572 0.00174609 0)
(0.091262 0.00182527 0)
(0.091066 0.00191153 0)
(0.0908695 0.00200585 0)
(0.0906729 0.00210935 0)
(0.0904766 0.00222329 0)
(0.0902815 0.00234912 0)
(0.0900883 0.00248845 0)
(0.0898982 0.00264308 0)
(0.0897128 0.00281498 0)
(0.0895341 0.00300632 0)
(0.0893645 0.00321939 0)
(0.0892072 0.00345657 0)
(0.0890662 0.00372021 0)
(0.0889464 0.00401253 0)
(0.0888538 0.00433536 0)
(0.0887955 0.00468988 0)
(0.08878 0.00507622 0)
(0.088817 0.00549297 0)
(0.0889172 0.0059366 0)
(0.0890918 0.00640078 0)
(0.0893519 0.00687567 0)
(0.0897075 0.00734735 0)
(0.0901653 0.00779758 0)
(0.0907275 0.00820418 0)
(0.0913891 0.00854242 0)
(0.0921365 0.00878779 0)
(0.0999998 7.12002e-05 0)
(0.0999862 0.000225008 0)
(0.0999398 0.000401005 0)
(0.0998491 0.000532099 0)
(0.099718 0.000589675 0)
(0.0995607 0.000589182 0)
(0.0993926 0.000562783 0)
(0.0992249 0.000535745 0)
(0.0990628 0.000519425 0)
(0.0989077 0.000514972 0)
(0.0987584 0.000519201 0)
(0.0986135 0.000528459 0)
(0.0984716 0.000540142 0)
(0.0983315 0.000552817 0)
(0.0981924 0.000565875 0)
(0.0980538 0.00057916 0)
(0.0979153 0.000592722 0)
(0.0977766 0.000606682 0)
(0.0976375 0.00062117 0)
(0.0974978 0.000636308 0)
(0.0973573 0.000652199 0)
(0.0972158 0.000668932 0)
(0.0970734 0.000686581 0)
(0.0969298 0.000705208 0)
(0.0967849 0.000724863 0)
(0.0966387 0.000745585 0)
(0.0964912 0.000767399 0)
(0.0963422 0.00079032 0)
(0.0961918 0.000814351 0)
(0.0960399 0.000839489 0)
(0.0958865 0.000865722 0)
(0.0957317 0.000893038 0)
(0.0955754 0.000921426 0)
(0.0954176 0.000950876 0)
(0.0952584 0.000981386 0)
(0.0950977 0.00101296 0)
(0.0949357 0.00104562 0)
(0.0947723 0.0010794 0)
(0.0946076 0.00111432 0)
(0.0944416 0.00115046 0)
(0.0942744 0.00118789 0)
(0.0941059 0.00122669 0)
(0.0939363 0.00126698 0)
(0.0937655 0.00130889 0)
(0.0935937 0.00135258 0)
(0.0934208 0.00139821 0)
(0.093247 0.001446 0)
(0.0930724 0.0014962 0)
(0.0928969 0.00154906 0)
(0.0927207 0.00160491 0)
(0.092544 0.00166411 0)
(0.0923668 0.00172707 0)
(0.0921893 0.00179424 0)
(0.0920118 0.00186616 0)
(0.0918345 0.00194343 0)
(0.0916578 0.0020267 0)
(0.0914819 0.00211674 0)
(0.0913076 0.0022144 0)
(0.0911353 0.00232059 0)
(0.0909659 0.00243637 0)
(0.0908004 0.00256286 0)
(0.0906399 0.00270129 0)
(0.090486 0.00285297 0)
(0.0903405 0.00301924 0)
(0.0902056 0.00320149 0)
(0.090084 0.00340107 0)
(0.089979 0.00361919 0)
(0.0898945 0.00385684 0)
(0.0898348 0.00411464 0)
(0.0898054 0.00439264 0)
(0.089812 0.00469009 0)
(0.0898611 0.00500519 0)
(0.0899598 0.00533478 0)
(0.0901151 0.005674 0)
(0.090334 0.00601608 0)
(0.0906226 0.00635204 0)
(0.0909853 0.00667075 0)
(0.0914243 0.00695906 0)
(0.0919382 0.00720246 0)
(0.0925216 0.00738607 0)
(0.0931642 0.00749611 0)
(0.0999999 7.33264e-05 0)
(0.09999 0.000235418 0)
(0.0999529 0.000425939 0)
(0.0998757 0.000574244 0)
(0.0997588 0.000646743 0)
(0.0996136 0.000655879 0)
(0.0994545 0.000633766 0)
(0.099293 0.000607361 0)
(0.0991354 0.000589961 0)
(0.0989838 0.000584102 0)
(0.0988378 0.0005873 0)
(0.0986964 0.000596122 0)
(0.0985582 0.00060794 0)
(0.0984221 0.000621212 0)
(0.0982872 0.00063522 0)
(0.098153 0.000649727 0)
(0.098019 0.000664724 0)
(0.0978849 0.0006803 0)
(0.0977503 0.000696564 0)
(0.0976152 0.000713623 0)
(0.0974793 0.000731573 0)
(0.0973424 0.000750494 0)
(0.0972046 0.000770455 0)
(0.0970656 0.000791511 0)
(0.0969254 0.000813706 0)
(0.0967839 0.000837073 0)
(0.096641 0.000861631 0)
(0.0964969 0.000887389 0)
(0.0963514 0.000914344 0)
(0.0962045 0.000942486 0)
(0.0960563 0.000971802 0)
(0.0959068 0.00100227 0)
(0.0957559 0.00103389 0)
(0.0956038 0.00106663 0)
(0.0954505 0.0011005 0)
(0.0952959 0.00113549 0)
(0.0951402 0.00117163 0)
(0.0949835 0.00120894 0)
(0.0948257 0.00124745 0)
(0.0946669 0.00128723 0)
(0.0945072 0.00132835 0)
(0.0943467 0.00137088 0)
(0.0941854 0.00141494 0)
(0.0940235 0.00146065 0)
(0.0938609 0.00150815 0)
(0.0936979 0.00155762 0)
(0.0935345 0.00160925 0)
(0.0933709 0.00166325 0)
(0.0932072 0.00171989 0)
(0.0930436 0.00177945 0)
(0.0928803 0.00184224 0)
(0.0927176 0.00190864 0)
(0.0925557 0.00197904 0)
(0.092395 0.0020539 0)
(0.0922359 0.00213372 0)
(0.0920788 0.00221905 0)
(0.0919244 0.0023105 0)
(0.0917733 0.00240872 0)
(0.0916263 0.00251442 0)
(0.0914845 0.00262834 0)
(0.091349 0.00275126 0)
(0.0912212 0.00288397 0)
(0.0911027 0.00302726 0)
(0.0909954 0.00318187 0)
(0.0909017 0.00334842 0)
(0.0908241 0.0035274 0)
(0.0907657 0.00371906 0)
(0.0907298 0.0039233 0)
(0.0907202 0.00413958 0)
(0.0907411 0.00436674 0)
(0.0907969 0.00460292 0)
(0.0908921 0.00484533 0)
(0.0910314 0.00509017 0)
(0.091219 0.00533248 0)
(0.0914586 0.00556609 0)
(0.091753 0.00578367 0)
(0.0921034 0.00597685 0)
(0.0925096 0.00613658 0)
(0.0929688 0.00625358 0)
(0.0934759 0.006319 0)
(0.0940234 0.00632514 0)
(0.0999999 7.49969e-05 0)
(0.0999924 0.000244185 0)
(0.0999624 0.000448278 0)
(0.0998962 0.000613752 0)
(0.099792 0.000702116 0)
(0.0996588 0.000722338 0)
(0.0995096 0.000705906 0)
(0.0993557 0.000681138 0)
(0.0992038 0.000663208 0)
(0.0990568 0.000656134 0)
(0.0989151 0.000658281 0)
(0.0987777 0.000666557 0)
(0.0986437 0.000678383 0)
(0.0985118 0.00069215 0)
(0.0983813 0.000707045 0)
(0.0982516 0.000722746 0)
(0.0981222 0.000739188 0)
(0.0979927 0.000756414 0)
(0.0978628 0.000774509 0)
(0.0977324 0.000793559 0)
(0.0976012 0.000813647 0)
(0.0974691 0.000834842 0)
(0.097336 0.000857204 0)
(0.0972018 0.000880777 0)
(0.0970665 0.000905598 0)
(0.0969299 0.000931689 0)
(0.0967921 0.000959061 0)
(0.0966531 0.000987715 0)
(0.0965128 0.00101764 0)
(0.0963713 0.00104882 0)
(0.0962287 0.00108124 0)
(0.0960848 0.00111488 0)
(0.0959399 0.0011497 0)
(0.0957939 0.00118571 0)
(0.0956469 0.00122288 0)
(0.095499 0.00126123 0)
(0.0953502 0.00130075 0)
(0.0952007 0.00134147 0)
(0.0950504 0.00138342 0)
(0.0948994 0.00142665 0)
(0.094748 0.00147123 0)
(0.094596 0.00151722 0)
(0.0944438 0.00156473 0)
(0.0942914 0.00161386 0)
(0.0941389 0.00166474 0)
(0.0939865 0.00171751 0)
(0.0938344 0.00177236 0)
(0.0936827 0.00182947 0)
(0.0935317 0.00188904 0)
(0.0933817 0.00195133 0)
(0.0932329 0.0020166 0)
(0.0930856 0.00208513 0)
(0.0929402 0.00215726 0)
(0.0927973 0.00223333 0)
(0.0926572 0.00231372 0)
(0.0925207 0.00239883 0)
(0.0923883 0.00248908 0)
(0.092261 0.00258491 0)
(0.0921396 0.00268675 0)
(0.0920252 0.00279506 0)
(0.0919191 0.00291023 0)
(0.0918227 0.00303264 0)
(0.0917377 0.00316256 0)
(0.0916658 0.00330018 0)
(0.0916093 0.00344549 0)
(0.0915704 0.00359829 0)
(0.0915516 0.00375809 0)
(0.0915558 0.00392404 0)
(0.0915858 0.00409487 0)
(0.0916446 0.00426877 0)
(0.0917353 0.00444336 0)
(0.0918609 0.0046156 0)
(0.0920239 0.00478175 0)
(0.0922267 0.00493737 0)
(0.0924708 0.00507739 0)
(0.0927569 0.00519619 0)
(0.0930847 0.0052878 0)
(0.0934526 0.00534618 0)
(0.0938578 0.00536555 0)
(0.0942958 0.00534074 0)
(0.0947611 0.00526751 0)
(0.0999999 7.64201e-05 0)
(0.0999938 0.000251792 0)
(0.0999688 0.000468562 0)
(0.0999115 0.000650939 0)
(0.0998185 0.000755721 0)
(0.0996967 0.00078813 0)
(0.0995578 0.000778588 0)
(0.0994124 0.000756438 0)
(0.0992673 0.00073861 0)
(0.099126 0.00073064 0)
(0.0989892 0.000731837 0)
(0.0988565 0.000739552 0)
(0.0987269 0.000751328 0)
(0.0985996 0.00076553 0)
(0.0984737 0.000781271 0)
(0.0983486 0.000798153 0)
(0.0982239 0.00081605 0)
(0.0980991 0.000834959 0)
(0.097974 0.000854932 0)
(0.0978483 0.000876034 0)
(0.097722 0.000898327 0)
(0.0975948 0.000921867 0)
(0.0974666 0.000946699 0)
(0.0973375 0.000972857 0)
(0.0972072 0.00100036 0)
(0.0970758 0.00102923 0)
(0.0969433 0.00105946 0)
(0.0968097 0.00109104 0)
(0.096675 0.00112395 0)
(0.0965393 0.00115817 0)
(0.0964025 0.00119368 0)
(0.0962648 0.00123044 0)
(0.0961262 0.00126843 0)
(0.0959868 0.00130762 0)
(0.0958466 0.001348 0)
(0.0957058 0.00138956 0)
(0.0955644 0.00143231 0)
(0.0954226 0.00147625 0)
(0.0952803 0.00152141 0)
(0.0951378 0.00156783 0)
(0.0949952 0.00161555 0)
(0.0948526 0.00166463 0)
(0.0947101 0.00171516 0)
(0.0945679 0.00176721 0)
(0.0944262 0.00182089 0)
(0.0942851 0.00187631 0)
(0.094145 0.00193361 0)
(0.0940061 0.00199293 0)
(0.0938686 0.00205444 0)
(0.0937328 0.00211831 0)
(0.0935992 0.00218474 0)
(0.0934681 0.00225392 0)
(0.09334 0.00232608 0)
(0.0932154 0.00240144 0)
(0.0930949 0.00248023 0)
(0.0929791 0.00256268 0)
(0.0928689 0.00264902 0)
(0.0927652 0.00273945 0)
(0.0926688 0.00283414 0)
(0.0925809 0.00293323 0)
(0.0925027 0.00303679 0)
(0.0924356 0.00314478 0)
(0.0923811 0.00325709 0)
(0.0923408 0.0033734 0)
(0.0923165 0.00349327 0)
(0.0923102 0.00361597 0)
(0.0923237 0.00374055 0)
(0.0923593 0.00386573 0)
(0.0924189 0.00398985 0)
(0.0925045 0.00411088 0)
(0.0926181 0.00422638 0)
(0.0927613 0.00433347 0)
(0.0929355 0.00442885 0)
(0.0931414 0.00450889 0)
(0.0933793 0.00456965 0)
(0.0936491 0.00460703 0)
(0.0939494 0.00461695 0)
(0.0942785 0.0045955 0)
(0.0946336 0.00453919 0)
(0.0950113 0.00444507 0)
(0.0954072 0.00431088 0)
(0.0999998 7.7763e-05 0)
(0.0999944 0.000258669 0)
(0.0999729 0.000487325 0)
(0.0999226 0.00068618 0)
(0.0998393 0.000807596 0)
(0.0997283 0.000852953 0)
(0.0995997 0.000851287 0)
(0.0994632 0.000832667 0)
(0.0993258 0.000815618 0)
(0.0991909 0.000807168 0)
(0.0990597 0.000807626 0)
(0.0989321 0.000814855 0)
(0.0988074 0.00082659 0)