/*--------------------------------*- C++ -*----------------------------------*\
| =========                 |                                                 |
| \\      /  F ield         | OpenFOAM: The Open Source CFD Toolbox           |
|  \\    /   O peration     | Version:  4.1                                   |
|   \\  /    A nd           | Web:      www.OpenFOAM.org                      |
|    \\/     M anipulation  |                                                 |
\*---------------------------------------------------------------------------*/
FoamFile
{
    version     2.0;
    format      ascii;
    class       surfaceScalarField;
    location    "0.4";
    object      phi;
}
// * * * * * * * * * * * * * * * * * * * * * * * * * * * * * * * * * * * * * //

dimensions      [1 0 -1 0 0 0 0];

internalField   nonuniform List<scalar> 
23692
(
1.163e-05
4.95198e-09
1.16162e-05
1.37655e-08
1.15939e-05
2.22809e-08
1.15674e-05
2.65454e-08
1.15412e-05
2.62439e-08
1.15177e-05
2.34855e-08
1.14972e-05
2.04943e-08
1.14788e-05
1.84266e-08
1.14613e-05
1.74352e-08
1.14442e-05
1.71968e-08
1.14268e-05
1.73322e-08
1.14093e-05
1.75796e-08
1.13915e-05
1.78094e-08
1.13735e-05
1.79787e-08
1.13554e-05
1.80879e-08
1.13373e-05
1.81519e-08
1.13192e-05
1.81862e-08
1.1301e-05
1.82024e-08
1.12829e-05
1.8206e-08
1.12647e-05
1.82013e-08
1.12466e-05
1.81886e-08
1.12285e-05
1.81677e-08
1.12105e-05
1.81373e-08
1.11925e-05
1.80968e-08
1.11746e-05
1.80456e-08
1.11568e-05
1.79839e-08
1.11391e-05
1.79117e-08
1.11215e-05
1.78297e-08
1.11039e-05
1.77392e-08
1.10866e-05
1.76411e-08
1.10693e-05
1.7537e-08
1.10522e-05
1.74286e-08
1.10352e-05
1.73171e-08
1.10184e-05
1.72045e-08
1.10017e-05
1.7092e-08
1.09852e-05
1.69813e-08
1.09688e-05
1.6874e-08
1.09525e-05
1.67712e-08
1.09364e-05
1.66747e-08
1.09204e-05
1.65861e-08
1.09046e-05
1.65075e-08
1.08888e-05
1.64412e-08
1.08732e-05
1.63897e-08
1.08576e-05
1.63564e-08
1.0842e-05
1.63449e-08
1.08265e-05
1.63595e-08
1.0811e-05
1.6405e-08
1.07954e-05
1.64872e-08
1.07798e-05
1.66127e-08
1.0764e-05
1.67893e-08
1.0748e-05
1.70256e-08
1.07317e-05
1.73319e-08
1.07151e-05
1.77204e-08
1.0698e-05
1.82051e-08
1.06804e-05
1.88025e-08
1.06621e-05
1.95325e-08
1.06429e-05
2.04186e-08
1.06226e-05
2.14892e-08
1.06011e-05
2.27784e-08
1.05781e-05
2.43282e-08
1.05533e-05
2.619e-08
1.05262e-05
2.84281e-08
1.04964e-05
3.11226e-08
1.04634e-05
3.4376e-08
1.04265e-05
3.83192e-08
1.03848e-05
4.31228e-08
1.03372e-05
4.90119e-08
1.02824e-05
5.62877e-08
1.02184e-05
6.53598e-08
1.01431e-05
7.67949e-08
1.00532e-05
9.13902e-08
9.94435e-06
1.10289e-07
9.81066e-06
1.35161e-07
9.64364e-06
1.68489e-07
9.43108e-06
2.14032e-07
9.15499e-06
2.77562e-07
8.78844e-06
3.68018e-07
8.2905e-06
4.9941e-07
7.59669e-06
6.95266e-07
6.59866e-06
9.99491e-07
1.52852e-06
5.07159e-06
1.24449e-05
1.00061e-08
1.24304e-05
2.82194e-08
1.24069e-05
4.58333e-08
1.23787e-05
5.47231e-08
1.23507e-05
5.42023e-08
1.23256e-05
4.85847e-08
1.23037e-05
4.24484e-08
1.22839e-05
3.81874e-08
1.22652e-05
3.61295e-08
1.22468e-05
3.56194e-08
1.22283e-05
3.5881e-08
1.22095e-05
3.63772e-08
1.21905e-05
3.68407e-08
1.21713e-05
3.71831e-08
1.2152e-05
3.74044e-08
1.21327e-05
3.75344e-08
1.21133e-05
3.76039e-08
1.20939e-05
3.76357e-08
1.20745e-05
3.76439e-08
1.20552e-05
3.76342e-08
1.20358e-05
3.76084e-08
1.20165e-05
3.75655e-08
1.19973e-05
3.75036e-08
1.19781e-05
3.74213e-08
1.1959e-05
3.73172e-08
1.19399e-05
3.7191e-08
1.1921e-05
3.70438e-08
1.19022e-05
3.68769e-08
1.18834e-05
3.66925e-08
1.18649e-05
3.6493e-08
1.18464e-05
3.62815e-08
1.18281e-05
3.60612e-08
1.181e-05
3.58351e-08
1.1792e-05
3.56067e-08
1.17741e-05
3.53791e-08
1.17564e-05
3.51553e-08
1.17389e-05
3.49385e-08
1.17215e-05
3.47315e-08
1.17042e-05
3.45377e-08
1.16871e-05
3.43605e-08
1.16701e-05
3.4204e-08
1.16532e-05
3.40731e-08
1.16364e-05
3.39731e-08
1.16196e-05
3.39106e-08
1.1603e-05
3.38933e-08
1.15863e-05
3.39299e-08
1.15696e-05
3.40305e-08
1.15529e-05
3.42068e-08
1.1536e-05
3.44725e-08
1.15191e-05
3.48431e-08
1.15018e-05
3.53367e-08
1.14843e-05
3.59745e-08
1.14665e-05
3.67808e-08
1.14481e-05
3.77845e-08
1.14291e-05
3.90195e-08
1.14094e-05
4.05259e-08
1.13888e-05
4.23515e-08
1.13671e-05
4.45536e-08
1.1344e-05
4.72016e-08
1.13194e-05
5.03798e-08
1.12928e-05
5.41917e-08
1.12639e-05
5.87654e-08
1.12322e-05
6.42616e-08
1.11972e-05
7.08824e-08
1.11581e-05
7.88868e-08
1.11142e-05
8.86088e-08
1.10642e-05
1.00486e-07
1.10069e-05
1.15098e-07
1.09406e-05
1.33223e-07
1.0863e-05
1.55926e-07
1.07713e-05
1.84676e-07
1.06616e-05
2.21537e-07
1.05289e-05
2.6944e-07
1.03664e-05
3.3259e-07
1.0165e-05
4.1705e-07
9.91257e-06
5.31519e-07
9.594e-06
6.88153e-07
9.19197e-06
9.03017e-07
8.69312e-06
1.19568e-06
8.11351e-06
1.58065e-06
2.00685e-06
7.63673e-06
1.33169e-05
1.50394e-08
1.33021e-05
4.30714e-08
1.32776e-05
7.02799e-08
1.32481e-05
8.42503e-08
1.32186e-05
8.37686e-08
1.31918e-05
7.53522e-08
1.31682e-05
6.60106e-08
1.3147e-05
5.94556e-08
1.31269e-05
5.62388e-08
1.31071e-05
5.53906e-08
1.30873e-05
5.57367e-08
1.30672e-05
5.64587e-08
1.30469e-05
5.71434e-08
1.30265e-05
5.76527e-08
1.30059e-05
5.79829e-08
1.29853e-05
5.81768e-08
1.29647e-05
5.82806e-08
1.2944e-05
5.83282e-08
1.29234e-05
5.834e-08
1.29028e-05
5.83251e-08
1.28822e-05
5.82856e-08
1.28617e-05
5.82205e-08
1.28412e-05
5.81267e-08
1.28207e-05
5.80015e-08
1.28003e-05
5.78436e-08
1.27801e-05
5.76528e-08
1.27599e-05
5.74299e-08
1.27398e-05
5.71776e-08
1.27199e-05
5.68989e-08
1.27001e-05
5.65978e-08
1.26804e-05
5.6279e-08
1.26609e-05
5.59471e-08
1.26415e-05
5.56074e-08
1.26223e-05
5.52645e-08
1.26032e-05
5.49235e-08
1.25843e-05
5.45892e-08
1.25655e-05
5.4266e-08
1.25469e-05
5.39588e-08
1.25284e-05
5.36724e-08
1.251e-05
5.34121e-08
1.24918e-05
5.31844e-08
1.24736e-05
5.29964e-08
1.24556e-05
5.2857e-08
1.24376e-05
5.27759e-08
1.24196e-05
5.27649e-08
1.24017e-05
5.28374e-08
1.23837e-05
5.30089e-08
1.23657e-05
5.32975e-08
1.23475e-05
5.37239e-08
1.23292e-05
5.4312e-08
1.23106e-05
5.50894e-08
1.22917e-05
5.6088e-08
1.22724e-05
5.73455e-08
1.22526e-05
5.89054e-08
1.22321e-05
6.08187e-08
1.22109e-05
6.31463e-08
1.21887e-05
6.596e-08
1.21653e-05
6.93459e-08
1.21406e-05
7.34076e-08
1.21142e-05
7.82704e-08
1.20858e-05
8.40877e-08
1.20551e-05
9.10483e-08
1.20215e-05
9.93864e-08
1.19846e-05
1.09396e-07
1.19436e-05
1.21449e-07
1.18978e-05
1.36021e-07
1.18462e-05
1.53725e-07
1.17876e-05
1.75365e-07
1.17205e-05
2.01999e-07
1.1643e-05
2.3504e-07
1.1553e-05
2.7639e-07
1.14475e-05
3.28634e-07
1.13234e-05
3.95288e-07
1.11765e-05
4.81136e-07
1.10027e-05
5.92592e-07
1.07979e-05
7.37979e-07
1.05604e-05
9.27282e-07
1.02946e-05
1.17048e-06
1.00196e-05
1.47241e-06
9.78492e-06
1.81698e-06
2.12351e-06
9.66992e-06
1.42503e-05
1.99077e-08
1.42354e-05
5.79311e-08
1.42105e-05
9.51352e-08
1.41801e-05
1.14738e-07
1.41491e-05
1.14768e-07
1.41206e-05
1.03818e-07
1.40953e-05
9.13335e-08
1.40723e-05
8.24213e-08
1.40506e-05
7.79363e-08
1.40294e-05
7.66445e-08
1.40081e-05
7.69949e-08
1.39867e-05
7.78876e-08
1.39651e-05
7.87606e-08
1.39434e-05
7.94169e-08
1.39216e-05
7.98449e-08
1.38997e-05
8.00965e-08
1.38778e-05
8.02312e-08
1.38559e-05
8.02924e-08
1.3834e-05
8.03066e-08
1.38121e-05
8.02857e-08
1.37902e-05
8.02323e-08
1.37684e-05
8.01445e-08
1.37467e-05
8.00185e-08
1.3725e-05
7.98511e-08
1.37033e-05
7.96399e-08
1.36818e-05
7.93848e-08
1.36604e-05
7.90879e-08
1.3639e-05
7.87519e-08
1.36178e-05
7.83813e-08
1.35968e-05
7.79819e-08
1.35758e-05
7.75595e-08
1.3555e-05
7.71205e-08
1.35344e-05
7.66721e-08
1.35139e-05
7.62207e-08
1.34936e-05
7.5773e-08
1.34734e-05
7.53352e-08
1.34533e-05
7.49141e-08
1.34334e-05
7.45152e-08
1.34136e-05
7.41459e-08
1.33939e-05
7.38134e-08
1.33744e-05
7.35263e-08
1.33549e-05
7.32944e-08
1.33355e-05
7.31296e-08
1.33162e-05
7.30455e-08
1.32969e-05
7.30579e-08
1.32776e-05
7.31849e-08
1.32582e-05
7.3448e-08
1.32387e-05
7.38712e-08
1.32192e-05
7.44828e-08
1.31994e-05
7.53147e-08
1.31793e-05
7.64043e-08
1.31589e-05
7.77947e-08
1.31381e-05
7.95356e-08
1.31167e-05
8.16853e-08
1.30946e-05
8.43123e-08
1.30717e-05
8.74965e-08
1.30479e-05
9.1333e-08
1.30228e-05
9.59346e-08
1.29964e-05
1.01437e-07
1.29682e-05
1.08001e-07
1.29381e-05
1.15827e-07
1.29056e-05
1.25153e-07
1.28704e-05
1.36278e-07
1.28319e-05
1.49568e-07
1.27896e-05
1.65483e-07
1.27428e-05
1.846e-07
1.26906e-05
2.07655e-07
1.26321e-05
2.35585e-07
1.25663e-05
2.696e-07
1.24918e-05
3.11263e-07
1.24074e-05
3.62607e-07
1.23116e-05
4.26272e-07
1.2203e-05
5.05658e-07
1.20808e-05
6.05076e-07
1.19455e-05
7.29785e-07
1.17995e-05
8.85734e-07
1.165e-05
1.07855e-06
1.15113e-05
1.31099e-06
1.14081e-05
1.57741e-06
1.1374e-05
1.85284e-06
2.07565e-06
1.14236e-05
1.52491e-05
2.44462e-08
1.52347e-05
7.23591e-08
1.521e-05
1.19829e-07
1.5179e-05
1.45708e-07
1.51468e-05
1.46955e-07
1.51167e-05
1.3397e-07
1.50894e-05
1.18554e-07
1.50646e-05
1.07273e-07
1.50411e-05
1.01398e-07
1.50183e-05
9.95181e-08
1.49955e-05
9.97487e-08
1.49727e-05
1.00724e-07
1.49498e-05
1.01726e-07
1.49267e-05
1.02494e-07
1.49036e-05
1.02999e-07
1.48805e-05
1.03297e-07
1.48573e-05
1.03455e-07
1.48341e-05
1.03527e-07
1.48109e-05
1.03541e-07
1.47878e-05
1.03512e-07
1.47647e-05
1.03444e-07
1.47416e-05
1.03333e-07
1.47186e-05
1.03176e-07
1.46956e-05
1.02967e-07
1.46728e-05
1.02704e-07
1.465e-05
1.02388e-07
1.46273e-05
1.0202e-07
1.46047e-05
1.01605e-07
1.45822e-05
1.01148e-07
1.45599e-05
1.00656e-07
1.45377e-05
1.00138e-07
1.45156e-05
9.96004e-08
1.44937e-05
9.90526e-08
1.44719e-05
9.8503e-08
1.44502e-05
9.79595e-08
1.44287e-05
9.74305e-08
1.44073e-05
9.69234e-08
1.43861e-05
9.64467e-08
1.4365e-05
9.60087e-08
1.4344e-05
9.56191e-08
1.4323e-05
9.52886e-08
1.43022e-05
9.503e-08
1.42814e-05
9.48582e-08
1.42606e-05
9.47903e-08
1.42399e-05
9.48464e-08
1.42191e-05
9.50498e-08
1.41983e-05
9.54271e-08
1.41774e-05
9.60089e-08
1.41563e-05
9.68304e-08
1.4135e-05
9.7932e-08
1.41134e-05
9.936e-08
1.40914e-05
1.01168e-07
1.40689e-05
1.03418e-07
1.40459e-05
1.06182e-07
1.40222e-05
1.09544e-07
1.39977e-05
1.13602e-07
1.39721e-05
1.18471e-07
1.39454e-05
1.24287e-07
1.39173e-05
1.31212e-07
1.38876e-05
1.39439e-07
1.3856e-05
1.49201e-07
1.38221e-05
1.60778e-07
1.37856e-05
1.74509e-07
1.37462e-05
1.90811e-07
1.37033e-05
2.10194e-07
1.36565e-05
2.33287e-07
1.36051e-05
2.60873e-07
1.35487e-05
2.93923e-07
1.34865e-05
3.33649e-07
1.34181e-05
3.8156e-07
1.33431e-05
4.39527e-07
1.32614e-05
5.09848e-07
1.31737e-05
5.95284e-07
1.30817e-05
6.99028e-07
1.29889e-05
8.2451e-07
1.29017e-05
9.74856e-07
1.28304e-05
1.15172e-06
1.27903e-05
1.35304e-06
1.28003e-05
1.56931e-06
1.28767e-05
1.77832e-06
1.94051e-06
1.30138e-05
1.6318e-05
2.849e-08
1.63045e-05
8.59107e-08
1.62805e-05
1.43764e-07
1.62496e-05
1.76628e-07
1.62166e-05
1.80022e-07
1.61848e-05
1.6574e-07
1.61556e-05
1.47767e-07
1.61287e-05
1.34174e-07
1.61033e-05
1.26786e-07
1.60787e-05
1.24138e-07
1.60544e-05
1.24084e-07
1.60301e-05
1.25016e-07
1.60058e-05
1.26064e-07
1.59814e-05
1.26892e-07
1.5957e-05
1.27443e-07
1.59326e-05
1.27769e-07
1.59082e-05
1.27941e-07
1.58837e-05
1.28016e-07
1.58593e-05
1.28027e-07
1.58349e-05
1.27988e-07
1.58106e-05
1.27904e-07
1.57863e-05
1.2777e-07
1.5762e-05
1.27581e-07
1.57378e-05
1.27332e-07
1.57137e-05
1.27021e-07
1.56897e-05
1.26648e-07
1.56657e-05
1.26215e-07
1.56419e-05
1.25728e-07
1.56181e-05
1.25193e-07
1.55945e-05
1.2462e-07
1.55711e-05
1.24016e-07
1.55477e-05
1.23393e-07
1.55245e-05
1.22759e-07
1.55014e-05
1.22126e-07
1.54784e-05
1.21502e-07
1.54556e-05
1.20897e-07
1.54329e-05
1.20322e-07
1.54102e-05
1.19784e-07
1.53877e-05
1.19296e-07
1.53653e-05
1.18867e-07
1.5343e-05
1.18513e-07
1.53207e-05
1.18247e-07
1.52985e-05
1.18089e-07
1.52763e-05
1.18058e-07
1.52541e-05
1.1818e-07
1.52318e-05
1.18482e-07
1.52095e-05
1.18995e-07
1.5187e-05
1.19758e-07
1.51644e-05
1.20811e-07
1.51415e-05
1.22203e-07
1.51183e-05
1.23988e-07
1.50947e-05
1.26231e-07
1.50707e-05
1.29003e-07
1.50461e-05
1.32388e-07
1.50208e-05
1.36483e-07
1.49946e-05
1.41402e-07
1.49675e-05
1.47275e-07
1.49393e-05
1.54258e-07
1.49098e-05
1.6253e-07
1.48787e-05
1.72307e-07
1.48459e-05
1.83841e-07
1.48112e-05
1.97435e-07
1.47741e-05
2.13449e-07
1.47345e-05
2.32316e-07
1.46921e-05
2.54554e-07
1.46466e-05
2.80788e-07
1.45977e-05
3.11769e-07
1.45452e-05
3.48401e-07
1.44891e-05
3.91763e-07
1.44296e-05
4.43138e-07
1.43671e-05
5.04023e-07
1.43029e-05
5.7613e-07
1.42389e-05
6.61326e-07
1.41785e-05
7.61508e-07
1.41267e-05
8.78302e-07
1.40911e-05
1.01253e-06
1.40816e-05
1.16324e-06
1.41104e-05
1.32632e-06
1.41892e-05
1.49248e-06
1.43241e-05
1.64545e-06
1.76186e-06
1.45048e-05
1.74619e-05
3.19048e-08
1.74497e-05
9.81946e-08
1.7427e-05
1.66385e-07
1.73967e-05
2.06965e-07
1.73631e-05
2.1361e-07
1.73299e-05
1.98986e-07
1.72987e-05
1.78992e-07
1.72696e-05
1.63227e-07
1.72422e-05
1.54221e-07
1.72157e-05
1.50606e-07
1.71898e-05
1.50071e-07
1.7164e-05
1.50806e-07
1.71383e-05
1.51792e-07
1.71126e-05
1.52609e-07
1.70869e-05
1.53164e-07
1.70612e-05
1.53493e-07
1.70356e-05
1.53665e-07
1.70099e-05
1.53734e-07
1.69843e-05
1.53736e-07
1.69587e-05
1.53685e-07
1.69331e-05
1.53583e-07
1.69076e-05
1.53426e-07
1.68821e-05
1.53207e-07
1.68567e-05
1.52921e-07
1.68314e-05
1.52566e-07
1.68061e-05
1.52142e-07
1.6781e-05
1.51652e-07
1.67559e-05
1.51103e-07
1.67309e-05
1.50503e-07
1.67061e-05
1.49861e-07
1.66813e-05
1.49188e-07
1.66567e-05
1.48495e-07
1.66322e-05
1.47793e-07
1.66078e-05
1.47094e-07
1.65835e-05
1.46409e-07
1.65593e-05
1.45748e-07
1.65352e-05
1.45124e-07
1.65112e-05
1.44546e-07
1.64873e-05
1.44028e-07
1.64635e-05
1.43582e-07
1.64397e-05
1.43224e-07
1.6416e-05
1.42973e-07
1.63923e-05
1.42849e-07
1.63686e-05
1.42877e-07
1.63449e-05
1.43084e-07
1.63212e-05
1.43504e-07
1.62973e-05
1.44173e-07
1.62733e-05
1.45132e-07
1.62491e-05
1.46431e-07
1.62247e-05
1.48124e-07
1.61999e-05
1.50273e-07
1.61748e-05
1.5295e-07
1.61492e-05
1.56235e-07
1.6123e-05
1.60222e-07
1.60962e-05
1.65018e-07
1.60687e-05
1.70746e-07
1.60402e-05
1.77548e-07
1.60108e-05
1.8559e-07
1.59801e-05
1.95061e-07
1.59482e-05
2.06186e-07
1.59148e-05
2.19222e-07
1.58797e-05
2.34475e-07
1.58429e-05
2.52297e-07
1.58042e-05
2.73104e-07
1.57634e-05
2.9738e-07
1.57207e-05
3.25689e-07
1.56759e-05
3.58684e-07
1.56293e-05
3.97117e-07
1.55814e-05
4.41841e-07
1.55329e-05
4.93802e-07
1.5485e-05
5.54024e-07
1.54398e-05
6.23552e-07
1.53999e-05
7.03369e-07
1.53694e-05
7.94223e-07
1.53535e-05
8.96367e-07
1.53591e-05
1.00914e-06
1.53941e-05
1.1304e-06
1.54669e-05
1.25575e-06
1.55837e-05
1.37779e-06
1.57456e-05
1.48576e-06
1.5665e-06
1.59431e-05
1.8686e-05
3.46129e-08
1.86753e-05
1.08931e-07
1.86544e-05
1.87249e-07
1.86251e-05
2.3624e-07
1.85914e-05
2.4734e-07
1.85569e-05
2.33488e-07
1.85238e-05
2.12156e-07
1.84925e-05
1.9445e-07
1.8463e-05
1.83759e-07
1.84347e-05
1.78981e-07
1.8407e-05
1.77753e-07
1.83797e-05
1.78115e-07
1.83526e-05
1.78913e-07
1.83256e-05
1.79638e-07
1.82987e-05
1.80144e-07
1.82718e-05
1.80445e-07
1.82449e-05
1.80597e-07
1.82181e-05
1.8065e-07
1.81912e-05
1.80636e-07
1.81645e-05
1.80568e-07
1.81377e-05
1.80446e-07
1.8111e-05
1.80266e-07
1.80844e-05
1.80019e-07
1.80578e-05
1.79701e-07
1.80313e-05
1.79309e-07
1.80048e-05
1.78843e-07
1.79784e-05
1.78307e-07
1.79522e-05
1.77709e-07
1.7926e-05
1.77058e-07
1.78999e-05
1.76365e-07
1.78739e-05
1.7564e-07
1.7848e-05
1.74897e-07
1.78222e-05
1.74148e-07
1.77964e-05
1.73405e-07
1.77708e-05
1.72681e-07
1.77453e-05
1.71987e-07
1.77199e-05
1.71336e-07
1.76945e-05
1.70741e-07
1.76692e-05
1.70215e-07
1.76439e-05
1.69774e-07
1.76188e-05
1.69435e-07
1.75936e-05
1.69218e-07
1.75684e-05
1.69148e-07
1.75433e-05
1.69253e-07
1.7518e-05
1.69562e-07
1.74928e-05
1.70114e-07
1.74674e-05
1.70948e-07
1.74419e-05
1.72112e-07
1.74162e-05
1.73659e-07
1.73902e-05
1.75649e-07
1.7364e-05
1.78149e-07
1.73374e-05
1.81237e-07
1.73104e-05
1.85e-07
1.72828e-05
1.89536e-07
1.72547e-05
1.94959e-07
1.7226e-05
2.01396e-07
1.71965e-05
2.08994e-07
1.71662e-05
2.17918e-07
1.71349e-05
2.28359e-07
1.71026e-05
2.40535e-07
1.70692e-05
2.54694e-07
1.70347e-05
2.71119e-07
1.6999e-05
2.90132e-07
1.69622e-05
3.12099e-07
1.69244e-05
3.37433e-07
1.68857e-05
3.66593e-07
1.68466e-05
4.00087e-07
1.68075e-05
4.38463e-07
1.67694e-05
4.82299e-07
1.67333e-05
5.32177e-07
1.6701e-05
5.88645e-07
1.66747e-05
6.52151e-07
1.66575e-05
7.22951e-07
1.6653e-05
8.0097e-07
1.66661e-05
8.85615e-07
1.67021e-05
9.75526e-07
1.67665e-05
1.06828e-06
1.68645e-05
1.16011e-06
1.69989e-05
1.24571e-06
1.71685e-05
1.31843e-06
1.37102e-06
1.73663e-05
1.99958e-05
3.66059e-08
1.99867e-05
1.17993e-07
1.99679e-05
2.06088e-07
1.994e-05
2.64086e-07
1.99065e-05
2.80844e-07
1.98711e-05
2.68956e-07
1.98362e-05
2.47078e-07
1.98029e-05
2.27757e-07
1.97713e-05
2.15375e-07
1.9741e-05
2.09267e-07
1.97116e-05
2.0714e-07
1.96828e-05
2.06949e-07
1.96543e-05
2.07424e-07
1.9626e-05
2.07963e-07
1.95979e-05
2.08361e-07
1.95698e-05
2.08596e-07
1.95417e-05
2.08704e-07
1.95137e-05
2.08727e-07
1.94858e-05
2.08689e-07
1.94578e-05
2.08599e-07
1.943e-05
2.08456e-07
1.94021e-05
2.08254e-07
1.93743e-05
2.07983e-07
1.93466e-05
2.07639e-07
1.93189e-05
2.07218e-07
1.92913e-05
2.06721e-07
1.92638e-05
2.06153e-07
1.92363e-05
2.05523e-07
1.92089e-05
2.04839e-07
1.91816e-05
2.04114e-07
1.91543e-05
2.0336e-07
1.91272e-05
2.0259e-07
1.91001e-05
2.01817e-07
1.90731e-05
2.01055e-07
1.90461e-05
2.00316e-07
1.90193e-05
1.99613e-07
1.89925e-05
1.9896e-07
1.89657e-05
1.9837e-07
1.8939e-05
1.97859e-07
1.89124e-05
1.97443e-07
1.88857e-05
1.97142e-07
1.88591e-05
1.96978e-07
1.88325e-05
1.96978e-07
1.88059e-05
1.97172e-07
1.87792e-05
1.97594e-07
1.87524e-05
1.98282e-07
1.87256e-05
1.99283e-07
1.86986e-05
2.00645e-07
1.86715e-05
2.02426e-07
1.86441e-05
2.04688e-07
1.86165e-05
2.07503e-07
1.85886e-05
2.10951e-07
1.85603e-05
2.15121e-07
1.85316e-05
2.20114e-07
1.85025e-05
2.26043e-07
1.84729e-05
2.33033e-07
1.84427e-05
2.41228e-07
1.8412e-05
2.50786e-07
1.83806e-05
2.61883e-07
1.83486e-05
2.74721e-07
1.8316e-05
2.89517e-07
1.82829e-05
3.06518e-07
1.82494e-05
3.25991e-07
1.82156e-05
3.48228e-07
1.81818e-05
3.73544e-07
1.81485e-05
4.02268e-07
1.81163e-05
4.34737e-07
1.80859e-05
4.71285e-07
1.80584e-05
5.12217e-07
1.80352e-05
5.57781e-07
1.80182e-05
6.08125e-07
1.80096e-05
6.63244e-07
1.80121e-05
7.229e-07
1.80291e-05
7.86537e-07
1.8064e-05
8.53172e-07
1.81207e-05
9.21277e-07
1.82028e-05
9.88675e-07
1.83129e-05
1.05248e-06
1.84519e-05
1.10915e-06
1.86181e-05
1.15471e-06
1.18527e-06
1.88063e-05
2.13972e-05
3.79453e-08
2.13898e-05
1.25412e-07
2.1373e-05
2.22825e-07
2.13468e-05
2.90278e-07
2.13139e-05
3.13797e-07
2.12778e-05
3.05057e-07
2.12414e-05
2.83484e-07
2.12062e-05
2.62962e-07
2.11726e-05
2.4896e-07
2.11405e-05
2.41406e-07
2.11095e-05
2.38204e-07
2.10791e-05
2.3729e-07
2.10493e-05
2.37307e-07
2.10197e-05
2.37564e-07
2.09903e-05
2.3779e-07
2.09611e-05
2.37917e-07
2.09319e-05
2.37956e-07
2.09028e-05
2.37931e-07
2.08737e-05
2.37859e-07
2.08447e-05
2.37743e-07
2.08157e-05
2.37578e-07
2.07867e-05
2.37356e-07
2.07579e-05
2.37067e-07
2.0729e-05
2.36704e-07
2.07002e-05
2.36265e-07
2.06715e-05
2.35751e-07
2.06428e-05
2.35168e-07
2.06141e-05
2.34524e-07
2.05856e-05
2.33829e-07
2.0557e-05
2.33095e-07
2.05286e-05
2.32335e-07
2.05002e-05
2.31564e-07
2.04718e-05
2.30793e-07
2.04435e-05
2.30036e-07
2.04152e-05
2.29308e-07
2.0387e-05
2.28621e-07
2.03589e-05
2.27989e-07
2.03307e-05
2.27427e-07
2.03027e-05
2.2695e-07
2.02746e-05
2.26579e-07
2.02466e-05
2.26332e-07
2.02185e-05
2.26234e-07
2.01905e-05
2.26313e-07
2.01624e-05
2.26601e-07
2.01343e-05
2.27134e-07
2.01061e-05
2.27953e-07
2.00779e-05
2.29104e-07
2.00495e-05
2.30641e-07
2.00211e-05
2.32619e-07
1.99924e-05
2.35105e-07
1.99636e-05
2.38169e-07
1.99346e-05
2.41892e-07
1.99053e-05
2.4636e-07
1.98758e-05
2.51672e-07
1.9846e-05
2.57934e-07
1.98159e-05
2.65265e-07
1.97855e-05
2.73794e-07
1.97549e-05
2.83663e-07
1.9724e-05
2.95027e-07
1.96931e-05
3.08052e-07
1.9662e-05
3.22919e-07
1.96311e-05
3.39818e-07
1.96006e-05
3.58948e-07
1.95708e-05
3.80514e-07
1.95422e-05
4.04719e-07
1.95152e-05
4.31756e-07
1.94907e-05
4.61798e-07
1.94696e-05
4.94977e-07
1.9453e-05
5.31367e-07
1.94425e-05
5.70953e-07
1.94396e-05
6.13599e-07
1.94465e-05
6.5901e-07
1.94653e-05
7.06679e-07
1.94987e-05
7.55849e-07
1.9549e-05
8.05463e-07
1.96188e-05
8.54129e-07
1.971e-05
9.00113e-07
1.98237e-05
9.41368e-07
1.99599e-05
9.75633e-07
2.01166e-05
1.00062e-06
1.01428e-06
2.02902e-05
2.28966e-05
3.87419e-08
2.28906e-05
1.31349e-07
2.28759e-05
2.37552e-07
2.28515e-05
3.14739e-07
2.28193e-05
3.45946e-07
2.27829e-05
3.41448e-07
2.27454e-05
3.21039e-07
2.27086e-05
2.99797e-07
2.26732e-05
2.8433e-07
2.26393e-05
2.75287e-07
2.26067e-05
2.70879e-07
2.25749e-05
2.69098e-07
2.25437e-05
2.68535e-07
2.25129e-05
2.68417e-07
2.24823e-05
2.68403e-07
2.24519e-05
2.68378e-07
2.24216e-05
2.68319e-07
2.23914e-05
2.68229e-07
2.23613e-05
2.68113e-07
2.23312e-05
2.67966e-07
2.23011e-05
2.67779e-07
2.22711e-05
2.6754e-07
2.22411e-05
2.67239e-07
2.22112e-05
2.66869e-07
2.21813e-05
2.66426e-07
2.21514e-05
2.65912e-07
2.21216e-05
2.65333e-07
2.20918e-05
2.64696e-07
2.20621e-05
2.64013e-07
2.20324e-05
2.63295e-07
2.20027e-05
2.62556e-07
2.1973e-05
2.61808e-07
2.19434e-05
2.61065e-07
2.19138e-05
2.60341e-07
2.18843e-05
2.59648e-07
2.18547e-05
2.58999e-07
2.18252e-05
2.5841e-07
2.17958e-05
2.57895e-07
2.17663e-05
2.57471e-07
2.17369e-05
2.57157e-07
2.17074e-05
2.56973e-07
2.1678e-05
2.56946e-07
2.16486e-05
2.57104e-07
2.16192e-05
2.5748e-07
2.15897e-05
2.5811e-07
2.15602e-05
2.59036e-07
2.15307e-05
2.60306e-07
2.15011e-05
2.6197e-07
2.14715e-05
2.64087e-07
2.14417e-05
2.66718e-07
2.14119e-05
2.69933e-07
2.13821e-05
2.73808e-07
2.13521e-05
2.78423e-07
2.1322e-05
2.83868e-07
2.1292e-05
2.9024e-07
2.12619e-05
2.9764e-07
2.12318e-05
3.0618e-07
2.12019e-05
3.15976e-07
2.11722e-05
3.2715e-07
2.11429e-05
3.39831e-07
2.11142e-05
3.54146e-07
2.10863e-05
3.70225e-07
2.10597e-05
3.88192e-07
2.10346e-05
4.08161e-07
2.10118e-05
4.30228e-07
2.09918e-05
4.5446e-07
2.09754e-05
4.80886e-07
2.09636e-05
5.0948e-07
2.09576e-05
5.40145e-07
2.09586e-05
5.72689e-07
2.09682e-05
6.0681e-07
2.0988e-05
6.42066e-07
2.10196e-05
6.77862e-07
2.10648e-05
7.13426e-07
2.11253e-05
7.47807e-07
2.12023e-05
7.79879e-07
2.12969e-05
8.08369e-07
2.14091e-05
8.31906e-07
2.15384e-05
8.49108e-07
2.16831e-05
8.58698e-07
8.59645e-07
2.18405e-05
2.45008e-05
3.913e-08
2.44961e-05
1.36053e-07
2.44832e-05
2.50491e-07
2.44604e-05
3.37518e-07
2.44293e-05
3.77126e-07
2.43929e-05
3.77817e-07
2.43545e-05
3.59391e-07
2.43164e-05
3.3795e-07
2.42795e-05
3.21252e-07
2.4244e-05
3.10752e-07
2.42099e-05
3.05066e-07
2.41767e-05
3.02313e-07
2.41442e-05
3.01066e-07
2.41122e-05
3.00488e-07
2.40804e-05
3.00173e-07
2.40489e-05
2.99951e-07
2.40176e-05
2.99764e-07
2.39863e-05
2.99591e-07
2.39551e-05
2.99419e-07
2.3924e-05
2.99237e-07
2.38929e-05
2.99029e-07
2.38618e-05
2.98779e-07
2.38308e-05
2.98475e-07
2.37998e-05
2.9811e-07
2.37688e-05
2.9768e-07
2.37379e-05
2.97185e-07
2.37069e-05
2.96631e-07
2.3676e-05
2.96025e-07
2.36451e-05
2.95379e-07
2.36142e-05
2.94703e-07
2.35833e-05
2.9401e-07
2.35525e-05
2.93313e-07
2.35216e-05
2.92623e-07
2.34907e-05
2.91954e-07
2.34599e-05
2.91319e-07
2.34291e-05
2.9073e-07
2.33982e-05
2.90201e-07
2.33674e-05
2.89747e-07
2.33367e-05
2.89385e-07
2.33059e-05
2.89134e-07
2.32751e-05
2.89015e-07
2.32444e-05
2.89053e-07
2.32137e-05
2.89277e-07
2.3183e-05
2.89719e-07
2.31523e-05
2.90415e-07
2.31216e-05
2.91407e-07
2.30909e-05
2.92739e-07
2.30603e-05
2.94461e-07
2.30297e-05
2.96627e-07
2.29991e-05
2.99294e-07
2.29686e-05
3.02526e-07
2.29381e-05
3.06391e-07
2.29078e-05
3.10959e-07
2.28776e-05
3.16308e-07
2.28477e-05
3.22516e-07
2.28181e-05
3.29666e-07
2.27889e-05
3.37844e-07
2.27603e-05
3.47134e-07
2.27324e-05
3.57623e-07
2.27054e-05
3.69392e-07
2.26797e-05
3.82517e-07
2.26556e-05
3.97065e-07
2.26334e-05
4.13087e-07
2.26138e-05
4.30613e-07
2.25972e-05
4.49647e-07
2.25843e-05
4.70156e-07
2.2576e-05
4.9206e-07
2.25732e-05
5.15222e-07
2.25768e-05
5.39439e-07
2.2588e-05
5.64427e-07
2.26079e-05
5.89811e-07
2.26378e-05
6.1512e-07
2.26789e-05
6.39777e-07
2.27322e-05
6.63106e-07
2.27986e-05
6.8434e-07
2.28788e-05
7.02637e-07
2.2973e-05
7.17122e-07
2.3081e-05
7.26925e-07
2.32018e-05
7.31241e-07
2.33341e-05
7.29395e-07
7.20906e-07
2.34757e-05
2.62173e-05
3.9241e-08
2.62136e-05
1.39801e-07
2.62021e-05
2.61932e-07
2.61809e-05
3.58756e-07
2.61508e-05
4.07256e-07
2.61147e-05
4.13903e-07
2.60759e-05
3.98201e-07
2.60367e-05
3.77097e-07
2.59985e-05
3.59463e-07
2.59617e-05
3.4761e-07
2.59262e-05
3.40638e-07
2.58917e-05
3.3685e-07
2.58579e-05
3.34844e-07
2.58247e-05
3.33737e-07
2.57919e-05
3.33064e-07
2.57593e-05
3.32604e-07
2.57269e-05
3.32259e-07
2.56946e-05
3.31983e-07
2.56624e-05
3.31746e-07
2.56302e-05
3.31525e-07
2.55981e-05
3.31298e-07
2.5566e-05
3.31044e-07
2.5534e-05
3.3075e-07
2.5502e-05
3.30406e-07
2.54699e-05
3.30006e-07
2.54379e-05
3.29551e-07
2.54059e-05
3.29045e-07
2.53738e-05
3.28495e-07
2.53418e-05
3.2791e-07
2.53097e-05
3.27302e-07
2.52777e-05
3.2668e-07
2.52456e-05
3.26057e-07
2.52135e-05
3.25444e-07
2.51814e-05
3.24851e-07
2.51493e-05
3.24291e-07
2.51172e-05
3.23776e-07
2.50851e-05
3.23319e-07
2.5053e-05
3.22933e-07
2.5021e-05
3.22635e-07
2.49889e-05
3.22443e-07
2.49569e-05
3.22377e-07
2.4925e-05
3.22461e-07
2.4893e-05
3.22722e-07
2.48612e-05
3.23192e-07
2.48294e-05
3.23905e-07
2.47977e-05
3.24897e-07
2.47661e-05
3.26212e-07
2.47346e-05
3.27893e-07
2.47033e-05
3.29988e-07
2.46721e-05
3.32549e-07
2.46412e-05
3.35629e-07
2.46106e-05
3.39284e-07
2.45803e-05
3.43573e-07
2.45505e-05
3.48554e-07
2.45212e-05
3.54286e-07
2.44926e-05
3.60829e-07
2.44648e-05
3.68238e-07
2.4438e-05
3.76565e-07
2.44125e-05
3.85857e-07
2.43885e-05
3.96151e-07
2.43664e-05
4.07472e-07
2.43465e-05
4.19829e-07
2.43292e-05
4.33211e-07
2.43152e-05
4.4758e-07
2.4305e-05
4.62871e-07
2.42992e-05
4.78978e-07
2.42985e-05
4.95752e-07
2.43038e-05
5.12997e-07
2.43158e-05
5.30459e-07
2.43355e-05
5.47826e-07
2.43637e-05
5.64724e-07
2.44013e-05
5.80718e-07
2.44489e-05
5.95315e-07
2.45071e-05
6.07975e-07
2.45765e-05
6.18126e-07
2.46571e-05
6.25183e-07
2.47488e-05
6.28578e-07
2.4851e-05
6.27791e-07
2.4963e-05
6.22386e-07
2.50835e-05
6.1204e-07
5.96571e-07
2.52109e-05
2.80539e-05
3.91892e-08
2.80508e-05
1.42864e-07
2.80406e-05
2.72186e-07
2.80207e-05
3.7865e-07
2.79916e-05
4.36328e-07
2.7956e-05
4.49516e-07
2.7917e-05
4.37177e-07
2.78772e-05
4.16931e-07
2.7838e-05
3.98694e-07
2.78e-05
3.85657e-07
2.77632e-05
3.77446e-07
2.77275e-05
3.72607e-07
2.76925e-05
3.69795e-07
2.76582e-05
3.68108e-07
2.76243e-05
3.6703e-07
2.75907e-05
3.66295e-07
2.75573e-05
3.65767e-07
2.7524e-05
3.65371e-07
2.74908e-05
3.6506e-07
2.74577e-05
3.64797e-07
2.74246e-05
3.64554e-07
2.73915e-05
3.64306e-07
2.73585e-05
3.64034e-07
2.73254e-05
3.63727e-07
2.72924e-05
3.63377e-07
2.72593e-05
3.62984e-07
2.72262e-05
3.6255e-07
2.71931e-05
3.6208e-07
2.71599e-05
3.61582e-07
2.71267e-05
3.61065e-07
2.70935e-05
3.60537e-07
2.70602e-05
3.60009e-07
2.70269e-05
3.5949e-07
2.69937e-05
3.5899e-07
2.69603e-05
3.58518e-07
2.6927e-05
3.58084e-07
2.68937e-05
3.577e-07
2.68605e-05
3.57379e-07
2.68272e-05
3.57135e-07
2.6794e-05
3.56984e-07
2.67609e-05
3.56945e-07
2.67278e-05
3.57039e-07
2.66949e-05
3.57292e-07
2.6662e-05
3.57731e-07
2.66293e-05
3.58387e-07
2.65968e-05
3.59292e-07
2.65645e-05
3.60482e-07
2.65325e-05
3.61995e-07
2.65007e-05
3.63871e-07
2.64693e-05
3.66151e-07
2.64384e-05
3.68877e-07
2.6408e-05
3.72091e-07
2.63782e-05
3.75834e-07
2.63491e-05
3.80146e-07
2.6321e-05
3.85063e-07
2.62938e-05
3.90619e-07
2.6268e-05
3.9684e-07
2.62436e-05
4.03746e-07
2.6221e-05
4.11346e-07
2.62004e-05
4.19637e-07
2.61822e-05
4.28599e-07
2.61669e-05
4.38196e-07
2.61548e-05
4.48368e-07
2.61464e-05
4.59032e-07
2.61424e-05
4.70075e-07
2.61432e-05
4.81349e-07
2.61494e-05
4.92676e-07
2.61618e-05
5.03835e-07
2.6181e-05
5.14571e-07
2.62075e-05
5.24586e-07
2.62419e-05
5.33551e-07
2.62848e-05
5.411e-07
2.63366e-05
5.46849e-07
2.63975e-05
5.50396e-07
2.64676e-05
5.51344e-07
2.65468e-05
5.49313e-07
2.66347e-05
5.43959e-07
2.67308e-05
5.34999e-07
2.68343e-05
5.22224e-07
2.69441e-05
5.05515e-07
4.8485e-07
2.70591e-05
3.0019e-05
3.90622e-08
3.00164e-05
1.45478e-07
3.0007e-05
2.81548e-07
2.99882e-05
3.97421e-07
2.99602e-05
4.64395e-07
2.99252e-05
4.84531e-07
2.98863e-05
4.76081e-07
2.9846e-05
4.57172e-07
2.98061e-05
4.38687e-07
2.97671e-05
4.24676e-07
2.97292e-05
4.15326e-07
2.96924e-05
4.0946e-07
2.96564e-05
4.05829e-07
2.9621e-05
4.03531e-07
2.95861e-05
4.02016e-07
2.95515e-05
4.00976e-07
2.95171e-05
4.00241e-07
2.94829e-05
3.9971e-07
2.94488e-05
3.99317e-07
2.94147e-05
3.99013e-07
2.93807e-05
3.98759e-07
2.93467e-05
3.98526e-07
2.93126e-05
3.98291e-07
2.92786e-05
3.98038e-07
2.92446e-05
3.97759e-07
2.92105e-05
3.97449e-07
2.91763e-05
3.97109e-07
2.91422e-05
3.96742e-07
2.91079e-05
3.96353e-07
2.90736e-05
3.95947e-07
2.90393e-05
3.95533e-07
2.90049e-05
3.95116e-07
2.89705e-05
3.94703e-07
2.89361e-05
3.94302e-07
2.89017e-05
3.93921e-07
2.88672e-05
3.93566e-07
2.88328e-05
3.93248e-07
2.87985e-05
3.92976e-07
2.87641e-05
3.92761e-07
2.87299e-05
3.92619e-07
2.86958e-05
3.92564e-07
2.86618e-05
3.92615e-07
2.8628e-05
3.92793e-07
2.85944e-05
3.9312e-07
2.8561e-05
3.93623e-07
2.8528e-05
3.94326e-07
2.84953e-05
3.95259e-07
2.8463e-05
3.96451e-07
2.84312e-05
3.9793e-07
2.83999e-05
3.99727e-07
2.83693e-05
4.01869e-07
2.83396e-05
4.04383e-07
2.83107e-05
4.07292e-07
2.82829e-05
4.10615e-07
2.82563e-05
4.14368e-07
2.82312e-05
4.18557e-07
2.82077e-05
4.23183e-07
2.81862e-05
4.28234e-07
2.81668e-05
4.3369e-07
2.815e-05
4.39513e-07
2.81361e-05
4.45653e-07
2.81254e-05
4.52038e-07
2.81184e-05
4.5858e-07
2.81155e-05
4.65167e-07
2.81172e-05
4.71662e-07
2.8124e-05
4.77907e-07
2.81363e-05
4.83715e-07
2.81547e-05
4.88878e-07
2.81795e-05
4.93162e-07
2.82112e-05
4.96315e-07
2.82501e-05
4.98066e-07
2.82966e-05
4.98136e-07
2.83506e-05
4.96243e-07
2.84124e-05
4.92111e-07
2.84817e-05
4.85483e-07
2.85584e-05
4.76131e-07
2.8642e-05
4.63868e-07
2.87319e-05
4.48564e-07
2.88275e-05
4.30148e-07
2.89278e-05
4.08619e-07
3.84034e-07
2.90321e-05
3.21217e-05
3.89241e-08
3.21193e-05
1.47836e-07
3.21106e-05
2.90284e-07
3.20927e-05
4.15292e-07
3.20656e-05
4.91545e-07
3.20312e-05
5.18881e-07
3.19926e-05
5.14728e-07
3.19522e-05
4.97582e-07
3.19117e-05
4.79195e-07
3.18719e-05
4.64449e-07