/*--------------------------------*- C++ -*----------------------------------*\
| =========                 |                                                 |
| \\      /  F ield         | OpenFOAM: The Open Source CFD Toolbox           |
|  \\    /   O peration     | Version:  4.1                                   |
|   \\  /    A nd           | Web:      www.OpenFOAM.org                      |
|    \\/     M anipulation  |                                                 |
\*---------------------------------------------------------------------------*/
FoamFile
{
    version     2.0;
    format      ascii;
    class       volVectorField;
    location    "0.4";
    object      U;
}
// * * * * * * * * * * * * * * * * * * * * * * * * * * * * * * * * * * * * * //

dimensions      [0 1 -1 0 0 0 0];

internalField   nonuniform List<vector> 
12013
(
(0.0999931 4.00593e-06 0)
(0.0999211 1.13832e-05 0)
(0.0997594 1.87818e-05 0)
(0.0995382 2.28108e-05 0)
(0.0993032 2.299e-05 0)
(0.0990869 2.09747e-05 0)
(0.0988992 1.86639e-05 0)
(0.0987345 1.71174e-05 0)
(0.0985825 1.65266e-05 0)
(0.0984349 1.66357e-05 0)
(0.098287 1.71116e-05 0)
(0.0981372 1.77121e-05 0)
(0.0979851 1.83107e-05 0)
(0.0978314 1.8862e-05 0)
(0.0976766 1.93633e-05 0)
(0.097521 1.98273e-05 0)
(0.0973652 2.02689e-05 0)
(0.0972093 2.06994e-05 0)
(0.0970533 2.11245e-05 0)
(0.0968975 2.15483e-05 0)
(0.0967419 2.1971e-05 0)
(0.0965865 2.23918e-05 0)
(0.0964316 2.28085e-05 0)
(0.0962771 2.322e-05 0)
(0.0961232 2.36248e-05 0)
(0.09597 2.40222e-05 0)
(0.0958177 2.44117e-05 0)
(0.0956662 2.47936e-05 0)
(0.0955158 2.51686e-05 0)
(0.0953665 2.55376e-05 0)
(0.0952184 2.59023e-05 0)
(0.0950716 2.62646e-05 0)
(0.0949262 2.66263e-05 0)
(0.094782 2.699e-05 0)
(0.0946393 2.73576e-05 0)
(0.094498 2.77319e-05 0)
(0.0943581 2.81157e-05 0)
(0.0942196 2.85113e-05 0)
(0.0940825 2.89222e-05 0)
(0.0939467 2.93521e-05 0)
(0.0938122 2.98057e-05 0)
(0.0936788 3.0288e-05 0)
(0.0935466 3.08058e-05 0)
(0.0934153 3.13669e-05 0)
(0.0932848 3.19807e-05 0)
(0.0931548 3.26586e-05 0)
(0.0930253 3.34143e-05 0)
(0.0928959 3.42636e-05 0)
(0.0927661 3.52256e-05 0)
(0.0926358 3.63235e-05 0)
(0.0925043 3.75837e-05 0)
(0.0923712 3.90385e-05 0)
(0.0922357 4.07265e-05 0)
(0.0920972 4.2694e-05 0)
(0.0919546 4.49954e-05 0)
(0.0918071 4.76985e-05 0)
(0.0916533 5.08844e-05 0)
(0.0914918 5.46519e-05 0)
(0.0913208 5.91231e-05 0)
(0.0911384 6.44489e-05 0)
(0.0909421 7.08172e-05 0)
(0.0907288 7.84651e-05 0)
(0.0904952 8.76926e-05 0)
(0.0902369 9.88863e-05 0)
(0.0899486 0.000112547 0)
(0.0896236 0.000129333 0)
(0.0892538 0.000150124 0)
(0.0888287 0.000176109 0)
(0.0883348 0.000208924 0)
(0.0877546 0.000250863 0)
(0.087065 0.0003052 0)
(0.0862345 0.000376702 0)
(0.0852202 0.000472463 0)
(0.083962 0.000603263 0)
(0.0823737 0.000785849 0)
(0.0803308 0.00104681 0)
(0.077648 0.00142929 0)
(0.0740325 0.00200691 0)
(0.069029 0.0029274 0)
(0.0621014 0.00460223 0)
(0.0542925 0.00888055 0)
(0.0999943 1.21576e-05 0)
(0.0999239 3.4763e-05 0)
(0.0997647 5.74629e-05 0)
(0.0995458 6.98717e-05 0)
(0.0993122 7.04904e-05 0)
(0.0990965 6.43669e-05 0)
(0.0989088 5.73125e-05 0)
(0.0987437 5.25793e-05 0)
(0.0985913 5.07622e-05 0)
(0.0984435 5.10852e-05 0)
(0.0982955 5.25319e-05 0)
(0.0981457 5.43624e-05 0)
(0.0979939 5.61896e-05 0)
(0.0978404 5.78747e-05 0)
(0.0976858 5.94086e-05 0)
(0.0975306 6.083e-05 0)
(0.0973751 6.21832e-05 0)
(0.0972195 6.35021e-05 0)
(0.0970639 6.48067e-05 0)
(0.0969085 6.61067e-05 0)
(0.0967532 6.74036e-05 0)
(0.0965982 6.86944e-05 0)
(0.0964436 6.99739e-05 0)
(0.0962894 7.12376e-05 0)
(0.0961359 7.24812e-05 0)
(0.095983 7.37019e-05 0)
(0.0958309 7.48993e-05 0)
(0.0956797 7.60735e-05 0)
(0.0955295 7.72272e-05 0)
(0.0953805 7.83632e-05 0)
(0.0952326 7.94869e-05 0)
(0.0950859 8.06037e-05 0)
(0.0949405 8.17193e-05 0)
(0.0947965 8.28412e-05 0)
(0.0946538 8.39765e-05 0)
(0.0945125 8.51326e-05 0)
(0.0943726 8.63181e-05 0)
(0.094234 8.75411e-05 0)
(0.0940967 8.88118e-05 0)
(0.0939607 9.0141e-05 0)
(0.093826 9.15436e-05 0)
(0.0936923 9.30355e-05 0)
(0.0935597 9.46366e-05 0)
(0.093428 9.63712e-05 0)
(0.0932971 9.82684e-05 0)
(0.0931666 0.000100363 0)
(0.0930366 0.000102697 0)
(0.0929065 0.000105318 0)
(0.0927761 0.000108285 0)
(0.0926451 0.000111669 0)
(0.0925129 0.00011555 0)
(0.092379 0.000120028 0)
(0.0922427 0.00012522 0)
(0.0921033 0.000131265 0)
(0.09196 0.000138333 0)
(0.0918117 0.000146627 0)
(0.0916572 0.000156394 0)
(0.091495 0.000167935 0)
(0.0913235 0.00018162 0)
(0.0911408 0.000197905 0)
(0.0909444 0.000217358 0)
(0.0907316 0.000240694 0)
(0.0904989 0.000268816 0)
(0.0902422 0.000302883 0)
(0.0899566 0.000344393 0)
(0.0896359 0.000395308 0)
(0.0892724 0.000458232 0)
(0.0888565 0.000536671 0)
(0.0883762 0.000635416 0)
(0.0878159 0.000761121 0)
(0.0871554 0.000923189 0)
(0.0863684 0.00113513 0)
(0.0854198 0.00141672 0)
(0.0842631 0.00179731 0)
(0.0828355 0.00232116 0)
(0.0810538 0.00305547 0)
(0.0788092 0.00410198 0)
(0.075959 0.00561228 0)
(0.0723448 0.00780735 0)
(0.0680198 0.0109403 0)
(0.0642585 0.0148644 0)
(0.0999952 2.03881e-05 0)
(0.0999285 5.90566e-05 0)
(0.099775 9.80033e-05 0)
(0.0995617 0.000119531 0)
(0.0993319 0.000120926 0)
(0.0991177 0.000110701 0)
(0.0989298 9.87544e-05 0)
(0.0987638 9.0676e-05 0)
(0.0986105 8.75275e-05 0)
(0.098462 8.80222e-05 0)
(0.0983138 9.04432e-05 0)
(0.0981641 9.35351e-05 0)
(0.0980126 9.6635e-05 0)
(0.0978597 9.95045e-05 0)
(0.0977058 0.000102124 0)
(0.0975513 0.000104558 0)
(0.0973966 0.000106878 0)
(0.0972417 0.000109141 0)
(0.0970869 0.000111383 0)
(0.0969322 0.000113618 0)
(0.0967777 0.000115848 0)
(0.0966235 0.000118068 0)
(0.0964696 0.000120271 0)
(0.0963162 0.000122448 0)
(0.0961634 0.000124591 0)
(0.0960112 0.000126698 0)
(0.0958598 0.000128765 0)
(0.0957092 0.000130796 0)
(0.0955596 0.000132793 0)
(0.0954111 0.000134762 0)
(0.0952637 0.000136713 0)
(0.0951174 0.000138653 0)
(0.0949724 0.000140595 0)
(0.0948287 0.000142549 0)
(0.0946862 0.000144529 0)
(0.094545 0.000146548 0)
(0.0944051 0.000148619 0)
(0.0942665 0.000150757 0)
(0.0941291 0.00015298 0)
(0.0939929 0.000155307 0)
(0.0938579 0.000157761 0)
(0.0937238 0.000160372 0)
(0.0935908 0.000163173 0)
(0.0934585 0.000166206 0)
(0.0933268 0.000169522 0)
(0.0931957 0.000173179 0)
(0.0930647 0.000177247 0)
(0.0929337 0.000181812 0)
(0.0928023 0.000186973 0)
(0.0926702 0.000192848 0)
(0.0925368 0.000199578 0)
(0.0924016 0.000207328 0)
(0.0922641 0.0002163 0)
(0.0921234 0.00022673 0)
(0.0919788 0.000238903 0)
(0.0918292 0.000253164 0)
(0.0916735 0.000269927 0)
(0.0915104 0.0002897 0)
(0.0913382 0.000313102 0)
(0.091155 0.000340895 0)
(0.0909587 0.000374024 0)
(0.0907467 0.000413674 0)
(0.0905158 0.000461335 0)
(0.0902623 0.000518905 0)
(0.0899817 0.000588822 0)
(0.0896686 0.000674255 0)
(0.0893163 0.000779368 0)
(0.0889167 0.0009097 0)
(0.08846 0.00107271 0)
(0.0879337 0.0012786 0)
(0.0873227 0.00154144 0)
(0.0866081 0.00188096 0)
(0.085767 0.00232502 0)
(0.0847718 0.00291321 0)
(0.083591 0.0037018 0)
(0.0821922 0.00476954 0)
(0.0805509 0.0062222 0)
(0.0786661 0.00818948 0)
(0.0766031 0.0107994 0)
(0.0746222 0.0140577 0)
(0.0734129 0.0173676 0)
(0.0999962 2.84442e-05 0)
(0.0999347 8.37013e-05 0)
(0.0997904 0.000139677 0)
(0.0995863 0.000171213 0)
(0.0993628 0.000174055 0)
(0.0991513 0.000160056 0)
(0.0989632 0.00014327 0)
(0.0987958 0.000131751 0)
(0.098641 0.00012714 0)
(0.0984915 0.000127699 0)
(0.098343 0.000131032 0)
(0.0981935 0.000135364 0)
(0.0980426 0.000139745 0)
(0.0978906 0.000143827 0)
(0.0977377 0.000147573 0)
(0.0975844 0.000151065 0)
(0.0974309 0.000154405 0)
(0.0972773 0.000157668 0)
(0.0971237 0.000160904 0)
(0.0969703 0.000164132 0)
(0.096817 0.000167355 0)
(0.0966641 0.000170568 0)
(0.0965114 0.000173757 0)
(0.0963592 0.000176911 0)
(0.0962076 0.000180021 0)
(0.0960566 0.000183081 0)
(0.0959063 0.000186089 0)
(0.0957568 0.000189048 0)
(0.0956082 0.000191964 0)
(0.0954606 0.000194845 0)
(0.095314 0.000197703 0)
(0.0951686 0.000200551 0)
(0.0950243 0.000203407 0)
(0.0948811 0.000206286 0)
(0.0947391 0.000209206 0)
(0.0945984 0.000212188 0)
(0.0944587 0.00021525 0)
(0.0943203 0.000218414 0)
(0.094183 0.000221705 0)
(0.0940467 0.000225152 0)
(0.0939115 0.000228789 0)
(0.0937772 0.000232656 0)
(0.0936436 0.000236803 0)
(0.0935108 0.000241291 0)
(0.0933786 0.00024619 0)
(0.0932466 0.000251586 0)
(0.0931148 0.00025758 0)
(0.0929828 0.000264293 0)
(0.0928503 0.000271867 0)
(0.0927169 0.000280471 0)
(0.0925823 0.000290304 0)
(0.0924458 0.000301604 0)
(0.0923069 0.000314653 0)
(0.092165 0.000329786 0)
(0.0920191 0.000347407 0)
(0.0918683 0.000367999 0)
(0.0917117 0.000392143 0)
(0.0915478 0.000420548 0)
(0.0913754 0.000454074 0)
(0.0911926 0.000493776 0)
(0.0909974 0.000540956 0)
(0.0907877 0.00059723 0)
(0.0905605 0.000664621 0)
(0.0903128 0.000745683 0)
(0.0900408 0.000843663 0)
(0.0897401 0.000962728 0)
(0.0894054 0.00110828 0)
(0.0890308 0.00128738 0)
(0.0886089 0.00150935 0)
(0.0881317 0.0017866 0)
(0.08759 0.00213578 0)
(0.0869736 0.00257934 0)
(0.0862727 0.00314754 0)
(0.085479 0.00388091 0)
(0.0845893 0.00483267 0)
(0.0836119 0.00606957 0)
(0.0825776 0.00766754 0)
(0.081556 0.00969357 0)
(0.0806787 0.0121588 0)
(0.080165 0.0149054 0)
(0.0802844 0.01736 0)
(0.0999971 3.60915e-05 0)
(0.0999426 0.000108 0)
(0.0998105 0.000181571 0)
(0.0996191 0.000224153 0)
(0.0994046 0.000229501 0)
(0.099197 0.000212456 0)
(0.0990091 0.000191135 0)
(0.09884 0.000176168 0)
(0.0986832 0.000169939 0)
(0.0985324 0.000170384 0)
(0.0983835 0.000174488 0)
(0.0982343 0.000179972 0)
(0.0980844 0.000185598 0)
(0.0979336 0.000190891 0)
(0.0977822 0.000195785 0)
(0.0976305 0.000200373 0)
(0.0974787 0.000204778 0)
(0.0973269 0.000209093 0)
(0.0971751 0.000213377 0)
(0.0970234 0.000217656 0)
(0.096872 0.000221933 0)
(0.0967208 0.000226198 0)
(0.0965699 0.000230438 0)
(0.0964195 0.000234636 0)
(0.0962695 0.000238781 0)
(0.0961202 0.000242867 0)
(0.0959715 0.000246892 0)
(0.0958236 0.00025086 0)
(0.0956765 0.000254777 0)
(0.0955303 0.000258657 0)
(0.095385 0.000262516 0)
(0.0952408 0.00026637 0)
(0.0950975 0.000270242 0)
(0.0949554 0.000274153 0)
(0.0948143 0.000278127 0)
(0.0946742 0.000282189 0)
(0.0945352 0.000286366 0)
(0.0943972 0.000290686 0)
(0.0942603 0.000295183 0)
(0.0941242 0.000299893 0)
(0.0939891 0.000304863 0)
(0.0938547 0.000310145 0)
(0.093721 0.000315808 0)
(0.0935878 0.000321927 0)
(0.0934551 0.000328599 0)
(0.0933226 0.000335934 0)
(0.0931901 0.000344065 0)
(0.0930573 0.000353151 0)
(0.0929239 0.000363376 0)
(0.0927896 0.00037496 0)
(0.092654 0.000388163 0)
(0.0925165 0.00040329 0)
(0.0923766 0.000420707 0)
(0.0922337 0.000440846 0)
(0.092087 0.000464221 0)
(0.0919357 0.00049145 0)
(0.0917789 0.000523273 0)
(0.0916153 0.000560583 0)
(0.0914437 0.000604461 0)
(0.0912627 0.000656223 0)
(0.0910705 0.00071748 0)
(0.0908653 0.000790217 0)
(0.0906448 0.000876892 0)
(0.0904066 0.000980567 0)
(0.0901478 0.00110509 0)
(0.0898652 0.00125531 0)
(0.0895554 0.0014374 0)
(0.0892145 0.00165924 0)
(0.0888386 0.00193098 0)
(0.0884239 0.00226568 0)
(0.0879673 0.00268019 0)
(0.0874669 0.0031962 0)
(0.0869242 0.00384129 0)
(0.0863459 0.00464978 0)
(0.0857482 0.0056625 0)
(0.0851618 0.00692394 0)
(0.0846402 0.00847338 0)
(0.0842661 0.0103243 0)
(0.084155 0.0124248 0)
(0.0844394 0.0145908 0)
(0.0851955 0.0164234 0)
(0.099998 4.30641e-05 0)
(0.0999516 0.000131201 0)
(0.0998344 0.000222671 0)
(0.0996587 0.000277461 0)
(0.0994557 0.000286771 0)
(0.0992535 0.000267833 0)
(0.0990663 0.000242573 0)
(0.0988955 0.000224268 0)
(0.0987366 0.000216257 0)
(0.0985845 0.000216338 0)
(0.0984351 0.000220991 0)
(0.0982865 0.000227472 0)
(0.0981377 0.000234254 0)
(0.0979886 0.000240722 0)
(0.0978392 0.000246764 0)
(0.0976896 0.000252474 0)
(0.09754 0.000257981 0)
(0.0973904 0.000263394 0)
(0.0972409 0.000268779 0)
(0.0970916 0.000274163 0)
(0.0969425 0.000279551 0)
(0.0967936 0.000284931 0)
(0.096645 0.000290285 0)
(0.0964968 0.000295595 0)
(0.0963491 0.000300848 0)
(0.096202 0.000306036 0)
(0.0960554 0.000311159 0)
(0.0959096 0.000316221 0)
(0.0957644 0.000321233 0)
(0.0956201 0.000326211 0)
(0.0954766 0.000331173 0)
(0.095334 0.000336143 0)
(0.0951924 0.000341147 0)
(0.0950516 0.000346212 0)
(0.0949118 0.000351368 0)
(0.0947728 0.000356645 0)
(0.0946348 0.000362077 0)
(0.0944977 0.0003677 0)
(0.0943614 0.000373555 0)
(0.094226 0.000379689 0)
(0.0940912 0.000386159 0)
(0.0939571 0.000393034 0)
(0.0938236 0.000400395 0)
(0.0936905 0.000408339 0)
(0.0935577 0.000416985 0)
(0.0934249 0.000426471 0)
(0.0932921 0.00043696 0)
(0.0931589 0.000448648 0)
(0.0930251 0.000461762 0)
(0.0928903 0.000476572 0)
(0.0927542 0.000493393 0)
(0.0926163 0.000512601 0)
(0.0924761 0.000534635 0)
(0.0923331 0.000560019 0)
(0.0921865 0.000589371 0)
(0.0920357 0.000623429 0)
(0.0918798 0.00066307 0)
(0.0917179 0.000709348 0)
(0.091549 0.000763527 0)
(0.0913718 0.000827134 0)
(0.091185 0.000902019 0)
(0.0909873 0.000990432 0)
(0.090777 0.00109513 0)
(0.0905524 0.00121948 0)
(0.0903118 0.00136765 0)
(0.0900534 0.00154479 0)
(0.0897754 0.00175729 0)
(0.0894765 0.00201309 0)
(0.0891557 0.00232203 0)
(0.0888133 0.00269634 0)
(0.0884512 0.00315104 0)
(0.0880742 0.00370437 0)
(0.0876915 0.00437794 0)
(0.0873188 0.00519628 0)
(0.0869812 0.00618504 0)
(0.0867166 0.00736675 0)
(0.0865784 0.00875203 0)
(0.0866357 0.0103241 0)
(0.086967 0.0120148 0)
(0.0876379 0.0136754 0)
(0.0886511 0.01506 0)
(0.0999989 4.9111e-05 0)
(0.0999611 0.000152588 0)
(0.0998604 0.000261978 0)
(0.0997026 0.000330197 0)
(0.0995132 0.000345273 0)
(0.0993181 0.000326003 0)
(0.0991324 0.0002977 0)
(0.0989604 0.000276311 0)
(0.0987997 0.000266371 0)
(0.0986463 0.000265791 0)
(0.0984968 0.000270699 0)
(0.0983489 0.000277956 0)
(0.0982017 0.000285754 0)
(0.0980547 0.000293326 0)
(0.0979077 0.000300496 0)
(0.0977607 0.000307334 0)
(0.0976138 0.000313972 0)
(0.0974669 0.000320522 0)
(0.0973202 0.000327054 0)
(0.0971737 0.000333597 0)
(0.0970274 0.000340152 0)
(0.0968813 0.000346707 0)
(0.0967356 0.000353239 0)
(0.0965902 0.00035973 0)
(0.0964452 0.000366165 0)
(0.0963008 0.000372536 0)
(0.0961569 0.000378843 0)
(0.0960135 0.000385093 0)
(0.0958709 0.0003913 0)
(0.0957289 0.000397483 0)
(0.0955876 0.000403664 0)
(0.0954471 0.000409872 0)
(0.0953074 0.000416137 0)
(0.0951685 0.000422491 0)
(0.0950303 0.000428969 0)
(0.0948929 0.000435609 0)
(0.0947563 0.000442449 0)
(0.0946205 0.000449535 0)
(0.0944853 0.000456914 0)
(0.0943508 0.000464645 0)
(0.0942169 0.000472796 0)
(0.0940835 0.000481448 0)
(0.0939505 0.0004907 0)
(0.0938179 0.000500669 0)
(0.0936854 0.000511494 0)
(0.093553 0.00052334 0)
(0.0934204 0.000536403 0)
(0.0932874 0.000550909 0)
(0.0931537 0.00056713 0)
(0.0930191 0.000585379 0)
(0.0928832 0.000606027 0)
(0.0927457 0.000629507 0)
(0.0926061 0.00065633 0)
(0.0924639 0.000687096 0)
(0.0923187 0.00072251 0)
(0.0921697 0.00076341 0)
(0.0920164 0.000810783 0)
(0.091858 0.000865803 0)
(0.0916937 0.000929867 0)
(0.0915228 0.00100464 0)
(0.0913443 0.00109211 0)
(0.0911573 0.00119468 0)
(0.090961 0.00131521 0)
(0.0907544 0.00145717 0)
(0.0905369 0.00162472 0)
(0.0903081 0.00182289 0)
(0.090068 0.00205773 0)
(0.0898172 0.00233649 0)
(0.0895575 0.00266784 0)
(0.0892922 0.00306198 0)
(0.0890268 0.00353076 0)
(0.0887702 0.00408756 0)
(0.0885355 0.00474682 0)
(0.0883418 0.00552295 0)
(0.0882151 0.00642814 0)
(0.0881903 0.00746841 0)
(0.0883104 0.00863725 0)
(0.088624 0.00990638 0)
(0.0891767 0.0112144 0)
(0.0899953 0.0124573 0)
(0.0910608 0.0134915 0)
(0.0999997 5.40535e-05 0)
(0.0999705 0.000171591 0)
(0.0998866 0.000298627 0)
(0.0997478 0.000381471 0)
(0.0995736 0.000404347 0)
(0.099387 0.000386641 0)
(0.0992043 0.000356473 0)
(0.0990321 0.000332417 0)
(0.0988702 0.000320458 0)
(0.098716 0.000318903 0)
(0.0985667 0.000323726 0)
(0.09842 0.000331487 0)
(0.0982747 0.00034012 0)
(0.0981301 0.000348693 0)
(0.0979859 0.000356943 0)
(0.0978419 0.000364903 0)
(0.0976981 0.00037269 0)
(0.0975545 0.00038041 0)
(0.097411 0.000388131 0)
(0.0972678 0.00039588 0)
(0.0971248 0.000403656 0)
(0.096982 0.000411444 0)
(0.0968395 0.000419219 0)
(0.0966973 0.000426962 0)
(0.0965556 0.000434656 0)
(0.0964142 0.000442294 0)
(0.0962734 0.000449878 0)
(0.096133 0.000457418 0)
(0.0959932 0.000464928 0)
(0.095854 0.000472433 0)
(0.0957154 0.000479958 0)
(0.0955774 0.000487535 0)
(0.09544 0.0004952 0)
(0.0953033 0.000502989 0)
(0.0951672 0.000510943 0)
(0.0950318 0.000519104 0)
(0.094897 0.000527518 0)
(0.0947627 0.000536235 0)
(0.0946291 0.000545314 0)
(0.094496 0.000554822 0)
(0.0943633 0.000564837 0)
(0.0942311 0.000575455 0)
(0.0940991 0.000586791 0)
(0.0939675 0.000598978 0)
(0.0938359 0.000612178 0)
(0.0937043 0.000626581 0)
(0.0935724 0.000642408 0)
(0.0934403 0.000659921 0)
(0.0933075 0.000679423 0)
(0.0931738 0.000701271 0)
(0.0930391 0.00072588 0)
(0.0929029 0.000753734 0)
(0.092765 0.000785398 0)
(0.092625 0.000821532 0)
(0.0924824 0.000862909 0)
(0.0923368 0.000910433 0)
(0.0921878 0.000965162 0)
(0.092035 0.00102834 0)
(0.0918777 0.00110143 0)
(0.0917156 0.00118615 0)
(0.0915483 0.00128453 0)
(0.0913753 0.00139894 0)
(0.0911965 0.0015322 0)
(0.0910119 0.00168761 0)
(0.0908217 0.00186903 0)
(0.0906269 0.00208098 0)
(0.0904287 0.00232872 0)
(0.0902295 0.00261827 0)
(0.0900329 0.00295646 0)
(0.0898442 0.00335086 0)
(0.089671 0.00380962 0)
(0.0895235 0.00434105 0)
(0.0894157 0.00495293 0)
(0.0893657 0.00565127 0)
(0.0893962 0.00643851 0)
(0.0895344 0.00731066 0)
(0.0898106 0.00825357 0)
(0.0902546 0.00923845 0)
(0.0908899 0.0102177 0)
(0.091724 0.0111238 0)
(0.0927358 0.0118748 0)
(0.1 5.78211e-05 0)
(0.0999791 0.000187869 0)
(0.0999111 0.000332012 0)
(0.0997913 0.000430542 0)
(0.0996329 0.000463324 0)
(0.0994564 0.00044928 0)
(0.0992783 0.000418654 0)
(0.0991072 0.000392524 0)
(0.0989452 0.00037855 0)
(0.098791 0.000375738 0)
(0.0986424 0.000380129 0)
(0.0984973 0.000388096 0)
(0.0983543 0.000397352 0)
(0.0982125 0.000406796 0)
(0.0980714 0.000416061 0)
(0.0979308 0.000425121 0)
(0.0977906 0.000434062 0)
(0.0976505 0.000442978 0)
(0.0975107 0.000451924 0)
(0.0973712 0.000460925 0)
(0.0972318 0.000469974 0)
(0.0970927 0.000479053 0)
(0.0969538 0.000488137 0)
(0.0968153 0.000497204 0)
(0.0966771 0.000506238 0)
(0.0965392 0.000515233 0)
(0.0964018 0.000524193 0)
(0.0962647 0.000533128 0)
(0.0961282 0.000542059 0)
(0.095992 0.00055101 0)
(0.0958564 0.000560013 0)
(0.0957212 0.000569102 0)
(0.0955866 0.000578315 0)
(0.0954524 0.000587695 0)
(0.0953188 0.000597286 0)
(0.0951856 0.000607134 0)
(0.095053 0.000617291 0)
(0.0949208 0.000627816 0)
(0.094789 0.000638772 0)
(0.0946577 0.000650236 0)
(0.0945267 0.000662298 0)
(0.0943961 0.000675066 0)
(0.0942657 0.000688667 0)
(0.0941354 0.000703253 0)
(0.0940053 0.000719003 0)
(0.0938751 0.000736128 0)
(0.0937447 0.000754874 0)
(0.0936141 0.000775528 0)
(0.093483 0.000798424 0)
(0.0933512 0.000823949 0)
(0.0932185 0.000852553 0)
(0.0930848 0.000884755 0)
(0.0929497 0.000921158 0)
(0.0928131 0.000962459 0)
(0.0926747 0.00100947 0)
(0.0925342 0.00106312 0)
(0.0923914 0.00112449 0)
(0.0922461 0.00119484 0)
(0.0920982 0.00127562 0)
(0.0919474 0.00136851 0)
(0.091794 0.00147544 0)
(0.091638 0.00159865 0)
(0.0914798 0.00174069 0)
(0.0913203 0.00190449 0)
(0.0911605 0.00209336 0)
(0.0910021 0.00231103 0)
(0.0908476 0.00256163 0)
(0.0907005 0.00284965 0)
(0.0905653 0.00317984 0)
(0.0904481 0.00355703 0)
(0.090357 0.00398583 0)
(0.0903019 0.00447016 0)
(0.0902955 0.00501256 0)
(0.0903528 0.00561322 0)
(0.090491 0.0062687 0)
(0.0907291 0.0069703 0)
(0.0910861 0.00770228 0)
(0.0915785 0.0084402 0)
(0.0922163 0.00915004 0)
(0.0929984 0.0097894 0)
(0.0939074 0.0103121 0)
(0.100001 6.04625e-05 0)
(0.0999861 0.000201353 0)
(0.0999325 0.000361845 0)
(0.0998304 0.000476899 0)
(0.099688 0.000521584 0)
(0.0995227 0.000513349 0)
(0.0993507 0.000483816 0)
(0.0991824 0.00045637 0)
(0.0990217 0.000440517 0)
(0.0988686 0.000436243 0)
(0.0987214 0.000439889 0)
(0.0985784 0.00044777 0)
(0.0984381 0.000457428 0)
(0.0982995 0.000467599 0)
(0.0981619 0.000477798 0)
(0.0980249 0.000487924 0)
(0.0978885 0.000498017 0)
(0.0977524 0.000508145 0)
(0.0976165 0.000518349 0)
(0.0974809 0.000528643 0)
(0.0973455 0.000539016 0)
(0.0972103 0.000549446 0)
(0.0970754 0.000559905 0)
(0.0969408 0.000570373 0)
(0.0968064 0.000580832 0)
(0.0966723 0.000591279 0)
(0.0965386 0.000601719 0)
(0.0964051 0.000612165 0)
(0.096272 0.00062264 0)
(0.0961393 0.000633171 0)
(0.0960069 0.000643792 0)
(0.0958748 0.000654541 0)
(0.0957432 0.000665459 0)
(0.0956119 0.00067659 0)
(0.0954809 0.000687983 0)
(0.0953504 0.000699688 0)
(0.0952202 0.000711762 0)
(0.0950904 0.000724267 0)
(0.0949609 0.000737275 0)
(0.0948317 0.000750871 0)
(0.0947029 0.000765152 0)
(0.0945743 0.000780237 0)
(0.0944459 0.000796266 0)
(0.0943177 0.000813403 0)
(0.0941895 0.000831843 0)
(0.0940614 0.000851812 0)
(0.0939332 0.000873574 0)
(0.0938048 0.000897436 0)
(0.0936762 0.00092375 0)
(0.0935471 0.000952925 0)
(0.0934176 0.000985428 0)
(0.0932874 0.0010218 0)
(0.0931565 0.00106265 0)
(0.0930247 0.0011087 0)
(0.0928919 0.00116074 0)
(0.0927582 0.0012197 0)
(0.0926234 0.00128664 0)
(0.0924877 0.00136276 0)
(0.0923511 0.00144941 0)
(0.092214 0.00154815 0)
(0.0920767 0.0016607 0)
(0.09194 0.00178901 0)
(0.0918047 0.00193525 0)
(0.0916722 0.0021018 0)
(0.0915442 0.00229125 0)
(0.091423 0.00250637 0)
(0.0913117 0.00275004 0)
(0.0912141 0.00302514 0)
(0.0911352 0.00333443 0)
(0.0910809 0.00368028 0)
(0.0910586 0.00406443 0)
(0.091077 0.00448748 0)
(0.0911462 0.00494848 0)
(0.0912774 0.0054442 0)
(0.0914825 0.00596846 0)
(0.0917733 0.00651137 0)
(0.0921606 0.00705868 0)
(0.0926521 0.0075915 0)
(0.0932507 0.0080866 0)
(0.093952 0.00851788 0)
(0.0947426 0.00885914 0)
(0.100001 6.21268e-05 0)
(0.0999916 0.000212224 0)
(0.0999499 0.00038816 0)
(0.0998637 0.00052029 0)
(0.0997366 0.000578617 0)
(0.0995831 0.000578227 0)
(0.0994189 0.000551386 0)
(0.0992551 0.000523515 0)
(0.0990972 0.000506068 0)
(0.0989462 0.000500248 0)
(0.0988014 0.000502911 0)
(0.098661 0.000510451 0)
(0.0985238 0.000520302 0)
(0.0983886 0.000531056 0)
(0.0982547 0.000542101 0)
(0.0981217 0.000553249 0)
(0.0979893 0.000564483 0)
(0.0978573 0.000575834 0)
(0.0977256 0.000587323 0)
(0.0975942 0.000598951 0)
(0.097463 0.000610699 0)
(0.097332 0.00062254 0)
(0.0972013 0.000634446 0)
(0.0970707 0.000646394 0)
(0.0969404 0.00065837 0)
(0.0968103 0.00067037 0)
(0.0966804 0.0006824 0)
(0.0965508 0.000694478 0)
(0.0964213 0.000706626 0)
(0.0962921 0.000718876 0)
(0.0961632 0.000731262 0)
(0.0960345 0.000743824 0)
(0.095906 0.000756605 0)
(0.0957778 0.000769651 0)
(0.0956499 0.000783012 0)
(0.0955222 0.000796742 0)
(0.0953949 0.0008109 0)
(0.0952677 0.000825554 0)
(0.0951409 0.000840778 0)
(0.0950143 0.000856665 0)
(0.0948879 0.000873318 0)
(0.0947618 0.000890864 0)
(0.0946359 0.000909449 0)
(0.0945102 0.00092925 0)
(0.0943847 0.000950468 0)
(0.0942593 0.000973341 0)
(0.0941339 0.000998143 0)
(0.0940086 0.00102519 0)
(0.0938833 0.00105484 0)
(0.093758 0.00108751 0)
(0.0936326 0.00112366 0)
(0.0935071 0.00116384 0)
(0.0933815 0.00120864 0)
(0.0932559 0.00125876 0)
(0.0931303 0.00131496 0)
(0.0930048 0.00137811 0)
(0.0928797 0.00144918 0)
(0.0927552 0.00152925 0)
(0.0926319 0.00161952 0)
(0.0925101 0.00172132 0)
(0.0923908 0.00183609 0)
(0.0922749 0.00196539 0)
(0.0921637 0.0021109 0)
(0.0920589 0.00227437 0)
(0.0919626 0.00245758 0)
(0.0918773 0.00266231 0)
(0.0918064 0.00289022 0)
(0.0917536 0.00314276 0)
(0.0917234 0.00342097 0)
(0.0917214 0.00372533 0)
(0.0917535 0.00405547 0)
(0.0918265 0.00440991 0)
(0.0919479 0.0047857 0)
(0.0921253 0.00517812 0)
(0.0923661 0.00558031 0)
(0.092677 0.00598311 0)
(0.0930631 0.00637492 0)
(0.0935272 0.00674194 0)
(0.0940686 0.00706877 0)
(0.094682 0.00733944 0)
(0.0953574 0.00753901 0)
(0.100001 6.30223e-05 0)
(0.0999954 0.000220843 0)
(0.0999632 0.000411249 0)
(0.0998905 0.000560707 0)
(0.0997776 0.000634054 0)
(0.0996363 0.000643315 0)
(0.099481 0.000620717 0)
(0.0993233 0.000593405 0)
(0.0991696 0.000574795 0)
(0.099022 0.000567484 0)
(0.0988802 0.000569029 0)
(0.0987431 0.000576035 0)
(0.0986093 0.000585904 0)
(0.0984778 0.000597106 0)
(0.0983479 0.00060891 0)
(0.098219 0.000621033 0)
(0.0980908 0.000633392 0)
(0.0979631 0.000645973 0)
(0.0978358 0.000658773 0)
(0.0977087 0.000671774 0)
(0.0975819 0.000684948 0)
(0.0974553 0.000698264 0)
(0.0973288 0.000711691 0)
(0.0972025 0.000725206 0)
(0.0970764 0.000738794 0)
(0.0969504 0.000752453 0)
(0.0968245 0.000766192 0)
(0.0966988 0.000780027 0)
(0.0965732 0.000793984 0)
(0.0964477 0.000808094 0)
(0.0963224 0.000822394 0)
(0.0961972 0.000836923 0)
(0.0960722 0.000851724 0)
(0.0959473 0.000866845 0)
(0.0958226 0.000882335 0)
(0.0956981 0.000898249 0)
(0.0955737 0.000914649 0)
(0.0954496 0.000931603 0)
(0.0953257 0.000949189 0)
(0.0952021 0.000967502 0)
(0.0950787 0.000986649 0)
(0.0949555 0.00100676 0)
(0.0948326 0.00102799 0)
(0.09471 0.00105051 0)
(0.0945877 0.00107453 0)
(0.0944656 0.00110029 0)
(0.0943439 0.00112806 0)
(0.0942224 0.00115816 0)
(0.0941014 0.00119093 0)
(0.0939807 0.00122679 0)
(0.0938604 0.00126618 0)
(0.0937407 0.00130961 0)
(0.0936217 0.00135764 0)
(0.0935035 0.00141091 0)
(0.0933864 0.00147011 0)
(0.0932706 0.001536 0)
(0.0931566 0.00160943 0)
(0.0930448 0.0016913 0)
(0.092936 0.0017826 0)
(0.0928309 0.00188436 0)
(0.0927304 0.00199769 0)
(0.0926359 0.0021237 0)
(0.0925489 0.00226353 0)
(0.0924712 0.00241828 0)
(0.092405 0.00258895 0)
(0.0923529 0.00277642 0)
(0.0923179 0.00298129 0)
(0.0923034 0.00320384 0)
(0.0923134 0.00344383 0)
(0.0923523 0.00370044 0)
(0.0924246 0.00397201 0)
(0.0925353 0.00425594 0)
(0.0926893 0.00454848 0)
(0.0928914 0.00484464 0)
(0.0931458 0.00513807 0)
(0.0934556 0.00542112 0)
(0.0938227 0.00568495 0)
(0.0942471 0.00591987 0)
(0.0947266 0.00611585 0)
(0.0952563 0.00626317 0)
(0.0958288 0.00635327 0)
(0.100001 6.33716e-05 0)
(0.0999978 0.000227665 0)
(0.0999728 0.000431568 0)
(0.0999112 0.000598334 0)
(0.0998112 0.000687685 0)
(0.0996817 0.000708093 0)
(0.0995361 0.000691164 0)
(0.0993857 0.000665431 0)
(0.0992375 0.000646214 0)
(0.0990943 0.000637606 0)
(0.0989565 0.000638013 0)
(0.0988231 0.000644376 0)
(0.0986932 0.000654132 0)
(0.0985658 0.000665673 0)
(0.09844 0.000678159 0)
(0.0983154 0.00069121 0)
(0.0981915 0.000704675 0)
(0.0980683 0.000718493 0)
(0.0979454 0.000732626 0)
(0.0978228 0.00074704 0)
(0.0977004 0.000761695 0)
(0.0975782 0.000776552 0)
(0.0974561 0.000791579 0)
(0.0973342 0.00080675 0)
(0.0972123 0.000822051 0)
(0.0970905 0.000837481 0)
(0.0969688 0.000853049 0)
(0.0968471 0.000868771 0)
(0.0967255 0.000884674 0)
(0.0966038 0.000900788 0)
(0.0964823 0.000917148 0)
(0.0963608 0.000933794 0)
(0.0962393 0.000950768 0)
(0.096118 0.000968114 0)
(0.0959967 0.000985882 0)
(0.0958756 0.00100413 0)
(0.0957546 0.0010229 0)
(0.0956338 0.00104229 0)
(0.0955133 0.00106235 0)
(0.0953929 0.00108319 0)
(0.0952729 0.00110491 0)
(0.0951532 0.00112765 0)
(0.0950338 0.00115154 0)
(0.0949149 0.00117677 0)
(0.0947964 0.00120354 0)
(0.0946784 0.00123207 0)
(0.094561 0.00126264 0)
(0.0944443 0.00129553 0)
(0.0943283 0.00133108 0)
(0.0942132 0.00136966 0)
(0.0940991 0.00141168 0)
(0.0939863 0.0014576 0)
(0.0938749 0.00150792 0)
(0.0937653 0.00156317 0)
(0.0936577 0.00162395 0)
(0.0935528 0.00169089 0)
(0.093451 0.00176465 0)
(0.0933529 0.00184592 0)
(0.0932594 0.00193544 0)
(0.0931714 0.00203392 0)
(0.0930901 0.00214209 0)
(0.0930168 0.00226062 0)
(0.0929531 0.00239013 0)
(0.0929007 0.0025311 0)
(0.0928618 0.00268386 0)
(0.0928388 0.00284853 0)
(0.0928342 0.00302491 0)
(0.092851 0.00321241 0)
(0.0928922 0.00340998 0)
(0.0929611 0.00361601 0)
(0.0930609 0.00382824 0)
(0.093195 0.00404365 0)
(0.0933664 0.00425847 0)
(0.0935776 0.00446812 0)
(0.0938307 0.00466725 0)
(0.0941267 0.00484989 0)
(0.0944658 0.00500961 0)
(0.0948466 0.00513977 0)
(0.0952666 0.00523395 0)
(0.0957216 0.00528627 0)
(0.0962061 0.00529182 0)
(0.100001 6.33769e-05 0)
(0.0999992 0.000233154 0)
(0.0999793 0.000449639 0)
(0.0999268 0.000633477 0)
(0.0998379 0.000739444 0)
(0.0997198 0.000772159 0)
(0.0995842 0.000762147 0)
(0.099442 0.000738997 0)
(0.0993003 0.000719813 0)
(0.0991624 0.000710226 0)
(0.0990292 0.000709591 0)
(0.0989002 0.000715284 0)
(0.0987745 0.000724856 0)
(0.0986513 0.000736658 0)
(0.0985299 0.000749763 0)
(0.0984097 0.000763704 0)
(0.0982903 0.00077826 0)
(0.0981715 0.000793318 0)
(0.0980532 0.00080881 0)
(0.0979352 0.000824676 0)
(0.0978173 0.000840867 0)
(0.0976996 0.000857335 0)
(0.097582 0.000874043 0)
(0.0974645 0.000890964 0)
(0.097347 0.000908084 0)
(0.0972295 0.000925399 0)
(0.097112 0.000942918 0)
(0.0969944 0.000960658 0)
(0.0968768 0.000978641 0)
(0.0967592 0.000996898 0)
(0.0966415 0.00101546 0)
(0.0965238 0.00103436 0)
(0.0964062 0.00105365 0)
(0.0962886 0.00107336 0)
(0.096171 0.00109353 0)
(0.0960535 0.00111423 0)
(0.0959362 0.00113549 0)
(0.0958191 0.0011574 0)
(0.0957023 0.00118002 0)
(0.0955857 0.00120344 0)
(0.0954695 0.00122776 0)
(0.0953537 0.00125311 0)
(0.0952385 0.00127963 0)
(0.0951238 0.00130748 0)
(0.0950098 0.00133684 0)
(0.0948965 0.00136793 0)
(0.0947842 0.00140098 0)
(0.094673 0.00143627 0)
(0.0945629 0.00147409 0)
(0.0944543 0.00151476 0)
(0.0943473 0.00155864 0)
(0.0942423 0.0016061 0)
(0.0941395 0.00165755 0)
(0.0940394 0.00171342 0)
(0.0939425 0.00177417 0)
(0.0938492 0.00184025 0)
(0.0937602 0.00191214 0)
(0.0936764 0.0019903 0)
(0.0935985 0.00207517 0)
(0.0935276 0.00216718 0)
(0.0934649 0.00226666 0)
(0.0934116 0.00237388 0)
(0.0933694 0.00248898 0)
(0.0933398 0.00261196 0)
(0.0933247 0.0027426 0)
(0.0933261 0.00288044 0)
(0.0933461 0.00302474 0)
(0.0933869 0.00317438 0)
(0.0934508 0.00332786 0)
(0.0935401 0.00348322 0)
(0.0936569 0.00363804 0)
(0.0938031 0.00378938 0)
(0.0939805 0.00393383 0)
(0.0941901 0.00406754 0)
(0.0944326 0.00418626 0)
(0.0947081 0.00428554 0)
(0.0950156 0.00436083 0)
(0.0953535 0.0044077 0)
(0.0957194 0.0044221 0)
(0.0961098 0.0044005 0)
(0.0965206 0.00434013 0)
(0.100001 6.32018e-05 0)
(0.0999999 0.000237733 0)
(0.0999835 0.000465983 0)
(0.0999381 0.000666508 0)
(0.0998589 0.00078938 0)
(0.0997513 0.000835239 0)
(0.0996258 0.000833184 0)
(0.0994923 0.000813555 0)
(0.0993578 0.000795089 0)
(0.0992259 0.000784932 0)
(0.0990979 0.00078345 0)