/*--------------------------------*- C++ -*----------------------------------*\
| =========                 |                                                 |
| \\      /  F ield         | OpenFOAM: The Open Source CFD Toolbox           |
|  \\    /   O peration     | Version:  4.1                                   |
|   \\  /    A nd           | Web:      www.OpenFOAM.org                      |
|    \\/     M anipulation  |                                                 |
\*---------------------------------------------------------------------------*/
FoamFile
{
    version     2.0;
    format      ascii;
    class       volScalarField;
    location    "0.2";
    object      gradTx;
}
// * * * * * * * * * * * * * * * * * * * * * * * * * * * * * * * * * * * * * //

dimensions      [0 -1 0 1 0 0 0];

internalField   nonuniform List<scalar> 
512
(
0.0057732
0.0161489
0.0234907
0.0271468
0.0275001
0.02551
0.0222162
0.0184415
0.0147694
0.0114789
0.0086945
0.00642735
0.00461856
0.00318022
0.00201859
0.00104357
0.000170635
-0.000680297
-0.00158715
-0.00262758
-0.00387874
-0.00541282
-0.00728504
-0.00951079
-0.0120288
-0.0146509
-0.0170073
-0.0185183
-0.0184434
-0.016077
-0.0111051
-0.00398323
0.0176156
0.0492122
0.0714141
0.0822886
0.0831128
0.0768792
0.0667884
0.0553213
0.0442221
0.0343199
0.0259658
0.0191771
0.0137697
0.00947574
0.00601179
0.00310667
0.00050683
-0.00202757
-0.0047299
-0.00783322
-0.0115702
-0.0161605
-0.0217754
-0.0284703
-0.0360738
-0.0440341
-0.0512494
-0.0559671
-0.0559166
-0.0488916
-0.0338564
-0.0121612
0.030381
0.0846473
0.122234
0.140012
0.140568
0.129288
0.111761
0.092176
0.0734106
0.0568064
0.0428797
0.0316098
0.0226624
0.0155768
0.00987354
0.00509806
0.000828014
-0.00333479
-0.00777792
-0.01289
-0.0190627
-0.0266719
-0.036022
-0.0472356
-0.0600691
-0.0736486
-0.0861635
-0.0946543
-0.0951735
-0.0837363
-0.058284
-0.0209971
0.0448078
0.124296
0.178118
0.202159
0.20111
0.183394
0.15734
0.128936
0.102127
0.0786815
0.0591852
0.0435074
0.0311223
0.0213542
0.0135174
0.00697097
0.00112476
-0.00457511
-0.0106679
-0.0176977
-0.0262202
-0.0367817
-0.0498471
-0.0656516
-0.0839443
-0.103604
-0.122162
-0.135409
-0.137484
-0.12213
-0.0856907
-0.0310136
0.0618367
0.17043
0.241605
0.27076
0.265997
0.239781
0.203641
0.165452
0.130106
0.0996546
0.0746133
0.0546447
0.0389735
0.0266796
0.0168586
0.00868003
0.00138834
-0.00572154
-0.0133364
-0.0221546
-0.0329018
-0.0463126
-0.0630496
-0.0835234
-0.10757
-0.133938
-0.159597
-0.179063
-0.184242
-0.165864
-0.117699
-0.0428828
0.0827467
0.226023
0.315804
0.348089
0.336478
0.298911
0.250638
0.201461
0.157006
0.119388
0.0888715
0.0647867
0.0460383
0.0314266
0.0198148
0.0101818
0.00161095
-0.00674715
-0.0157202
-0.0261578
-0.0389604
-0.0550721
-0.0753973
-0.100602
-0.130735
-0.164585
-0.198724
-0.226427
-0.237016
-0.217147
-0.156449
-0.0575243
0.109365
0.295137
0.404626
0.436713
0.413744
0.361041
0.298098
0.23654
0.182381
0.137487
0.10164
0.0736889
0.0521384
0.0354716
0.0223074
0.0114356
0.00178577
-0.00762548
-0.0177571
-0.0296037
-0.0442436
-0.0628507
-0.0866213
-0.116569
-0.153117
-0.195325
-0.239638
-0.278248
-0.297572
-0.278786
-0.204883
-0.0762549
0.144411
0.383523
0.513094
0.539496
0.498805
0.42611
0.345503
0.270064
0.205661
0.153494
0.112571
0.0810987
0.0570969
0.0386959
0.0242626
0.0124038
0.00190714
-0.00833112
-0.0193875
-0.0323906
-0.0485945
-0.0694222
-0.0964126
-0.131027
-0.174253
-0.225735
-0.282195
-0.335114
-0.367878
-0.354416
-0.267175
-0.101032
0.192099
0.499561
0.647706
0.659517
0.59231
0.493589
0.391958
0.301162
0.22614
0.166882
0.121293
0.0867596
0.0607427
0.0409892
0.0256137
0.0130535
0.00197059
-0.00884058
-0.0205558
-0.0344211
-0.0518561
-0.0745469
-0.104423
-0.143492
-0.19352
-0.255128
-0.325895
-0.397297
-0.450025
-0.448772
-0.349411
-0.134869
0.259187
0.655776
0.816831
0.799833
0.694233
0.562286
0.436102
0.328682
0.242967
0.17707
0.127419
0.0904192
0.0629163
0.0422531
0.0263032
0.0133574
0.00197307
-0.00913321
-0.0212135
-0.0356065
-0.053876
-0.0779776
-0.110273
-0.153393
-0.21011
-0.28249
-0.369741
-0.464486
-0.546028
-0.568018
-0.460691
-0.182575
0.356925
0.871333
1.03102
0.962928
0.803399
0.630103
0.476009
0.351178
0.255155
0.183435
0.130561
0.0918401
0.0634782
0.0424067
0.0262858
0.0132953
0.00191316
-0.00919216
-0.0213213
-0.0358731
-0.0545147
-0.0794687
-0.113564
-0.160086
-0.223022
-0.306428
-0.412067
-0.535382
-0.657361
-0.720039
-0.614942
-0.252099
0.50471
1.17616
1.30287
1.14962
0.916791
0.693769
0.509122
0.36691
0.26161
0.185345
0.130357
0.0908129
0.0623192
0.0413928
0.0255311
0.012856
0.00179126
-0.00900531
-0.0208527
-0.035169
-0.0536549
-0.0787877
-0.113902
-0.162878
-0.231077
-0.325132
-0.450381
-0.607096
-0.784053
-0.914535
-0.83396
-0.357037
0.73717
1.61792
1.64568
1.35707
1.02864
0.748594
0.532223
0.373888
0.261171
0.182208
0.126491
0.0871685
0.0593715
0.0391834
0.0240251
0.0120391
0.00160947
-0.00856601
-0.0197962
-0.0334749
-0.0512137
-0.0757263
-0.110933
-0.161076
-0.232945
-0.336394
-0.481291
-0.674314
-0.922991
-1.16243
-1.15251
-0.521404
1.11826
2.27384
2.06875
1.57554
1.1294
0.788342
0.541471
0.369965
0.252672
0.173538
0.118729
0.0807868
0.054623
0.0357852
0.02177
0.0108571
0.00137084
-0.00787326
-0.0181566
-0.0308174
-0.0471583
-0.0701052
-0.104387
-0.154058
-0.227209
-0.33768
-0.500684
-0.728263
-1.06497
-1.47342
-1.62702
-0.788961
1.76997
3.27102
2.56524
1.7835
1.20501
0.805462
0.532583
0.353014
0.235015
0.159064
0.106947
0.0715987
0.0481391
0.0312461
0.01878
0.00934065
0.00107759
-0.0069307
-0.0159505
-0.0272892
-0.0415271
-0.0617593
-0.0941486
-0.141387
-0.212444
-0.326245
-0.504497
-0.75565
-1.18985
-1.8491
-2.35035
-1.24189
2.93208
4.82148
3.08247
1.94218
1.23716
0.791931
0.501126
0.321219
0.207235
0.138906
0.091163
0.0595696
0.0401038
0.0256602
0.0150707
0.00755053
0.000726049
-0.00574452
-0.0131901
-0.0230823
-0.0344675
-0.050475
-0.0803448
-0.122973
-0.187299
-0.299129
-0.49069
-0.738062
-1.25946
-2.26554
-3.47733
-2.03914
)
;

boundaryField
{
    left
    {
        type            calculated;
        value           uniform 0;
    }
    right
    {
        type            calculated;
        value           uniform 0;
    }
    interface
    {
        type            calculated;
        value           nonuniform List<scalar> 
32
(
2.93208
4.82148
3.08247
1.94218
1.23716
0.791931
0.501126
0.321219
0.207235
0.138906
0.091163
0.0595696
0.0401038
0.0256602
0.0150707
0.00755053
0.000726049
-0.00574452
-0.0131901
-0.0230823
-0.0344675
-0.050475
-0.0803448
-0.122973
-0.187299
-0.299129
-0.49069
-0.738062
-1.25946
-2.26554
-3.47733
-2.03914
)
;
    }
    bottom
    {
        type            calculated;
        value           nonuniform List<scalar> 
32
(
0.0057732
0.0161489
0.0234907
0.0271468
0.0275001
0.02551
0.0222162
0.0184415
0.0147694
0.0114789
0.0086945
0.00642735
0.00461856
0.00318022
0.00201859
0.00104357
0.000170635
-0.000680297
-0.00158715
-0.00262758
-0.00387874
-0.00541282
-0.00728504
-0.00951079
-0.0120288
-0.0146509
-0.0170073
-0.0185183
-0.0184434
-0.016077
-0.0111051
-0.00398323
)
;
    }
    defaultFaces
    {
        type            empty;
    }
}


// ************************************************************************* //
