/*--------------------------------*- C++ -*----------------------------------*\
| =========                 |                                                 |
| \\      /  F ield         | OpenFOAM: The Open Source CFD Toolbox           |
|  \\    /   O peration     | Version:  4.1                                   |
|   \\  /    A nd           | Web:      www.OpenFOAM.org                      |
|    \\/     M anipulation  |                                                 |
\*---------------------------------------------------------------------------*/
FoamFile
{
    version     2.0;
    format      ascii;
    class       volVectorField;
    location    "0.6";
    object      U;
}
// * * * * * * * * * * * * * * * * * * * * * * * * * * * * * * * * * * * * * //

dimensions      [0 1 -1 0 0 0 0];

internalField   nonuniform List<vector> 
12013
(
(0.1 5.49619e-07 0)
(0.099988 2.828e-06 0)
(0.0999422 6.72201e-06 0)
(0.0998515 1.12103e-05 0)
(0.0997187 1.4996e-05 0)
(0.099558 1.72531e-05 0)
(0.0993873 1.79204e-05 0)
(0.0992205 1.74907e-05 0)
(0.0990644 1.66084e-05 0)
(0.09892 1.57687e-05 0)
(0.0987849 1.52189e-05 0)
(0.0986558 1.50045e-05 0)
(0.0985298 1.50589e-05 0)
(0.0984051 1.52852e-05 0)
(0.0982808 1.55988e-05 0)
(0.0981563 1.5942e-05 0)
(0.0980318 1.62825e-05 0)
(0.0979074 1.66059e-05 0)
(0.0977833 1.69075e-05 0)
(0.0976598 1.71872e-05 0)
(0.0975371 1.74463e-05 0)
(0.0974153 1.76859e-05 0)
(0.0972946 1.79059e-05 0)
(0.0971752 1.81056e-05 0)
(0.0970573 1.82828e-05 0)
(0.096941 1.84357e-05 0)
(0.0968264 1.85612e-05 0)
(0.0967139 1.86566e-05 0)
(0.0966035 1.87193e-05 0)
(0.0964954 1.87472e-05 0)
(0.0963899 1.87389e-05 0)
(0.0962871 1.86939e-05 0)
(0.0961872 1.86128e-05 0)
(0.0960904 1.84972e-05 0)
(0.0959967 1.83502e-05 0)
(0.0959064 1.81764e-05 0)
(0.0958193 1.79816e-05 0)
(0.0957356 1.77731e-05 0)
(0.0956552 1.75602e-05 0)
(0.0955781 1.73527e-05 0)
(0.0955042 1.71622e-05 0)
(0.0954331 1.70025e-05 0)
(0.0953648 1.68884e-05 0)
(0.095299 1.68364e-05 0)
(0.0952352 1.6865e-05 0)
(0.095173 1.6994e-05 0)
(0.095112 1.72462e-05 0)
(0.0950516 1.76471e-05 0)
(0.0949912 1.82241e-05 0)
(0.09493 1.90092e-05 0)
(0.0948672 2.00381e-05 0)
(0.094802 2.13521e-05 0)
(0.0947333 2.29982e-05 0)
(0.09466 2.50323e-05 0)
(0.0945808 2.75193e-05 0)
(0.0944943 3.05366e-05 0)
(0.0943989 3.41759e-05 0)
(0.0942926 3.85493e-05 0)
(0.0941733 4.37921e-05 0)
(0.0940385 5.00703e-05 0)
(0.0938853 5.759e-05 0)
(0.0937103 6.66074e-05 0)
(0.0935093 7.74473e-05 0)
(0.0932776 9.05218e-05 0)
(0.0930092 0.000106363 0)
(0.0926968 0.000125668 0)
(0.0923314 0.000149355 0)
(0.0919019 0.000178661 0)
(0.0913938 0.000215279 0)
(0.0907888 0.000261563 0)
(0.0900624 0.000320857 0)
(0.0891822 0.00039801 0)
(0.088104 0.000500209 0)
(0.0867659 0.000638353 0)
(0.0850805 0.000829369 0)
(0.0829209 0.00110016 0)
(0.0800993 0.0014945 0)
(0.0763185 0.00208731 0)
(0.0711157 0.00302966 0)
(0.0639441 0.0047436 0)
(0.0558743 0.00912945 0)
(0.100001 1.64634e-06 0)
(0.0999888 8.61549e-06 0)
(0.099944 2.05451e-05 0)
(0.0998545 3.43128e-05 0)
(0.0997228 4.59403e-05 0)
(0.0995631 5.28896e-05 0)
(0.0993931 5.49641e-05 0)
(0.0992267 5.36693e-05 0)
(0.0990707 5.09784e-05 0)
(0.0989263 4.84103e-05 0)
(0.0987911 4.67265e-05 0)
(0.0986619 4.60662e-05 0)
(0.0985359 4.62294e-05 0)
(0.0984112 4.6919e-05 0)
(0.0982869 4.78764e-05 0)
(0.0981625 4.89257e-05 0)
(0.0980381 4.99678e-05 0)
(0.0979139 5.09583e-05 0)
(0.09779 5.18823e-05 0)
(0.0976666 5.27401e-05 0)
(0.097544 5.35353e-05 0)
(0.0974224 5.42709e-05 0)
(0.0973019 5.49473e-05 0)
(0.0971826 5.55611e-05 0)
(0.0970648 5.61075e-05 0)
(0.0969485 5.65794e-05 0)
(0.0968341 5.69679e-05 0)
(0.0967215 5.72649e-05 0)
(0.0966111 5.74618e-05 0)
(0.0965031 5.75529e-05 0)
(0.0963975 5.75344e-05 0)
(0.0962946 5.74041e-05 0)
(0.0961945 5.71636e-05 0)
(0.0960975 5.68181e-05 0)
(0.0960035 5.63774e-05 0)
(0.0959128 5.58558e-05 0)
(0.0958254 5.5271e-05 0)
(0.0957412 5.46453e-05 0)
(0.0956603 5.4006e-05 0)
(0.0955825 5.33847e-05 0)
(0.0955079 5.28172e-05 0)
(0.0954361 5.23447e-05 0)
(0.0953669 5.20127e-05 0)
(0.0953001 5.18723e-05 0)
(0.0952353 5.198e-05 0)
(0.0951721 5.2397e-05 0)
(0.0951099 5.31919e-05 0)
(0.0950483 5.44423e-05 0)
(0.0949865 5.62341e-05 0)
(0.094924 5.8664e-05 0)
(0.0948598 6.18409e-05 0)
(0.0947931 6.58909e-05 0)
(0.094723 7.0959e-05 0)
(0.0946482 7.72136e-05 0)
(0.0945675 8.48532e-05 0)
(0.0944795 9.4113e-05 0)
(0.0943827 0.000105274 0)
(0.094275 0.000118674 0)
(0.0941546 0.000134724 0)
(0.0940189 0.000153928 0)
(0.0938651 0.000176908 0)
(0.0936899 0.000204437 0)
(0.0934894 0.000237493 0)
(0.0932589 0.000277313 0)
(0.0929928 0.000325491 0)
(0.0926844 0.000384099 0)
(0.0923252 0.000455865 0)
(0.091905 0.000544441 0)
(0.0914106 0.000654779 0)
(0.0908257 0.000793723 0)
(0.0901291 0.000970881 0)
(0.0892933 0.0012 0)
(0.088282 0.00150111 0)
(0.0870471 0.00190391 0)
(0.0855245 0.00245307 0)
(0.0836292 0.00321656 0)
(0.0812508 0.0042974 0)
(0.0782442 0.00584977 0)
(0.0744487 0.00809959 0)
(0.0699189 0.0113082 0)
(0.0659608 0.0153329 0)
(0.100001 2.69408e-06 0)
(0.0999899 1.45791e-05 0)
(0.0999469 3.4988e-05 0)
(0.0998599 5.86135e-05 0)
(0.099731 7.8639e-05 0)
(0.0995739 9.06866e-05 0)
(0.0994057 9.43812e-05 0)
(0.0992403 9.2274e-05 0)
(0.0990847 8.77326e-05 0)
(0.0989402 8.33631e-05 0)
(0.0988048 8.04815e-05 0)
(0.0986753 7.93368e-05 0)
(0.0985492 7.95971e-05 0)
(0.0984245 8.07597e-05 0)
(0.0983002 8.23844e-05 0)
(0.0981761 8.41709e-05 0)
(0.098052 8.59498e-05 0)
(0.0979281 8.76438e-05 0)
(0.0978045 8.92276e-05 0)
(0.0976816 9.07002e-05 0)
(0.0975594 9.20677e-05 0)
(0.0974382 9.33351e-05 0)
(0.097318 9.45025e-05 0)
(0.0971991 9.55649e-05 0)
(0.0970816 9.65135e-05 0)
(0.0969657 9.73354e-05 0)
(0.0968515 9.80175e-05 0)
(0.0967392 9.85445e-05 0)
(0.0966289 9.89032e-05 0)
(0.0965209 9.9083e-05 0)
(0.0964154 9.90773e-05 0)
(0.0963124 9.88835e-05 0)
(0.0962122 9.8504e-05 0)
(0.0961148 9.79485e-05 0)
(0.0960205 9.72337e-05 0)
(0.0959293 9.63836e-05 0)
(0.0958412 9.54292e-05 0)
(0.0957562 9.44087e-05 0)
(0.0956744 9.33689e-05 0)
(0.0955956 9.23643e-05 0)
(0.0955197 9.14562e-05 0)
(0.0954466 9.07148e-05 0)
(0.0953759 9.02188e-05 0)
(0.0953074 9.00553e-05 0)
(0.0952408 9.03201e-05 0)
(0.0951756 9.11195e-05 0)
(0.0951113 9.25709e-05 0)
(0.0950474 9.4806e-05 0)
(0.0949833 9.79715e-05 0)
(0.0949182 0.000102232 0)
(0.0948514 0.000107775 0)
(0.094782 0.000114813 0)
(0.094709 0.000123594 0)
(0.0946314 0.000134403 0)
(0.0945479 0.000147575 0)
(0.0944571 0.00016351 0)
(0.0943576 0.00018268 0)
(0.0942474 0.000205654 0)
(0.0941247 0.000233122 0)
(0.0939871 0.000265926 0)
(0.093832 0.000305102 0)
(0.0936563 0.000351936 0)
(0.0934563 0.000408039 0)
(0.0932277 0.000475445 0)
(0.0929657 0.000556752 0)
(0.0926639 0.000655311 0)
(0.0923153 0.000775498 0)
(0.0919109 0.000923094 0)
(0.09144 0.00110584 0)
(0.0908894 0.00133423 0)
(0.0902428 0.0016227 0)
(0.0894806 0.00199136 0)
(0.0885783 0.0024685 0)
(0.0875074 0.0030942 0)
(0.0862349 0.00392534 0)
(0.0847274 0.00504149 0)
(0.082959 0.00654975 0)
(0.0809283 0.00858192 0)
(0.0787011 0.0112693 0)
(0.0765423 0.0146203 0)
(0.0751576 0.0180306 0)
(0.100001 3.64935e-06 0)
(0.0999912 2.05831e-05 0)
(0.0999509 4.98043e-05 0)
(0.099868 8.37954e-05 0)
(0.0997438 0.000112784 0)
(0.0995909 0.000130426 0)
(0.0994259 0.000136085 0)
(0.0992622 0.000133349 0)
(0.0991072 0.000127012 0)
(0.0989627 0.000120821 0)
(0.0988269 0.000116692 0)
(0.098697 0.000115014 0)
(0.0985707 0.000115337 0)
(0.0984459 0.000116958 0)
(0.0983219 0.000119251 0)
(0.0981981 0.000121789 0)
(0.0980745 0.000124327 0)
(0.0979512 0.000126753 0)
(0.0978283 0.000129028 0)
(0.0977061 0.00013115 0)
(0.0975846 0.000133126 0)
(0.0974641 0.000134961 0)
(0.0973446 0.000136657 0)
(0.0972264 0.000138205 0)
(0.0971096 0.000139594 0)
(0.0969942 0.000140804 0)
(0.0968806 0.000141818 0)
(0.0967687 0.000142614 0)
(0.0966589 0.000143173 0)
(0.0965512 0.000143481 0)
(0.0964459 0.000143529 0)
(0.096343 0.000143312 0)
(0.0962427 0.000142837 0)
(0.0961452 0.000142116 0)
(0.0960506 0.000141174 0)
(0.0959588 0.000140046 0)
(0.09587 0.000138776 0)
(0.0957842 0.000137421 0)
(0.0957012 0.000136047 0)
(0.0956211 0.000134732 0)
(0.0955437 0.000133566 0)
(0.0954688 0.000132648 0)
(0.0953962 0.000132093 0)
(0.0953256 0.000132025 0)
(0.0952565 0.000132581 0)
(0.0951887 0.000133914 0)
(0.0951216 0.000136192 0)
(0.0950547 0.000139606 0)
(0.0949873 0.000144363 0)
(0.0949189 0.000150698 0)
(0.0948486 0.00015888 0)
(0.0947756 0.000169211 0)
(0.094699 0.000182041 0)
(0.0946176 0.000197775 0)
(0.0945304 0.000216889 0)
(0.0944361 0.000239943 0)
(0.0943331 0.0002676 0)
(0.0942198 0.000300658 0)
(0.0940944 0.000340075 0)
(0.0939548 0.000387021 0)
(0.0937985 0.000442922 0)
(0.0936228 0.000509542 0)
(0.0934244 0.00058907 0)
(0.0931998 0.000684252 0)
(0.0929445 0.000798556 0)
(0.0926536 0.000936406 0)
(0.0923213 0.0011035 0)
(0.0919408 0.00130722 0)
(0.0915043 0.0015573 0)
(0.0910027 0.00186655 0)
(0.090426 0.00225213 0)
(0.0897633 0.002737 0)
(0.0890035 0.003352 0)
(0.0881373 0.00413829 0)
(0.0871605 0.00514976 0)
(0.0860804 0.00645396 0)
(0.0849269 0.00812777 0)
(0.0837693 0.0102393 0)
(0.0827403 0.0128006 0)
(0.082062 0.0156524 0)
(0.0820097 0.0182116 0)
(0.100001 4.47069e-06 0)
(0.0999929 2.64515e-05 0)
(0.0999562 6.46666e-05 0)
(0.0998789 0.000109426 0)
(0.0997611 0.000147941 0)
(0.0996143 0.000171773 0)
(0.0994538 0.000179908 0)
(0.0992928 0.00017689 0)
(0.0991389 0.000168939 0)
(0.0989943 0.000160976 0)
(0.098858 0.00015557 0)
(0.0987277 0.000153299 0)
(0.098601 0.000153624 0)
(0.0984763 0.000155655 0)
(0.0983526 0.000158589 0)
(0.0982294 0.000161867 0)
(0.0981065 0.00016517 0)
(0.0979841 0.000168342 0)
(0.0978622 0.000171332 0)
(0.097741 0.00017413 0)
(0.0976206 0.000176745 0)
(0.0975012 0.000179183 0)
(0.0973828 0.000181443 0)
(0.0972657 0.000183515 0)
(0.0971499 0.000185383 0)
(0.0970355 0.000187023 0)
(0.0969228 0.000188412 0)
(0.0968118 0.000189522 0)
(0.0967027 0.00019033 0)
(0.0965957 0.000190818 0)
(0.0964909 0.000190974 0)
(0.0963884 0.000190794 0)
(0.0962883 0.000190285 0)
(0.0961908 0.000189468 0)
(0.096096 0.000188375 0)
(0.0960038 0.00018705 0)
(0.0959144 0.000185554 0)
(0.0958277 0.000183961 0)
(0.0957437 0.00018236 0)
(0.0956622 0.000180852 0)
(0.0955831 0.000179557 0)
(0.0955063 0.000178605 0)
(0.0954315 0.000178147 0)
(0.0953583 0.000178345 0)
(0.0952866 0.000179381 0)
(0.0952157 0.000181454 0)
(0.0951454 0.000184787 0)
(0.095075 0.000189626 0)
(0.095004 0.000196244 0)
(0.0949317 0.000204948 0)
(0.0948574 0.000216086 0)
(0.0947803 0.000230051 0)
(0.0946995 0.000247295 0)
(0.094614 0.000268343 0)
(0.0945227 0.000293803 0)
(0.0944245 0.000324392 0)
(0.094318 0.000360956 0)
(0.0942016 0.000404504 0)
(0.0940738 0.000456246 0)
(0.0939327 0.000517642 0)
(0.0937762 0.000590466 0)
(0.093602 0.000676888 0)
(0.0934073 0.000779578 0)
(0.0931893 0.000901844 0)
(0.0929447 0.00104781 0)
(0.0926697 0.00122265 0)
(0.0923603 0.00143291 0)
(0.0920122 0.00168689 0)
(0.0916207 0.00199522 0)
(0.0911814 0.00237148 0)
(0.0906904 0.00283315 0)
(0.0901451 0.00340256 0)
(0.0895462 0.00410799 0)
(0.0888994 0.00498449 0)
(0.08822 0.00607365 0)
(0.0875382 0.0074207 0)
(0.0869063 0.00906556 0)
(0.0864068 0.0110222 0)
(0.0861556 0.0132381 0)
(0.0862857 0.0155267 0)
(0.0868748 0.0174811 0)
(0.100001 5.10325e-06 0)
(0.0999948 3.19803e-05 0)
(0.0999626 7.91891e-05 0)
(0.0998922 0.000134983 0)
(0.0997828 0.00018357 0)
(0.0996438 0.000214299 0)
(0.0994892 0.000225602 0)
(0.0993318 0.000222843 0)
(0.0991795 0.000213608 0)
(0.0990351 0.00020401 0)
(0.0988984 0.000197331 0)
(0.0987675 0.000194397 0)
(0.0986406 0.000194632 0)
(0.098516 0.000196989 0)
(0.0983928 0.0002005 0)
(0.0982703 0.000204481 0)
(0.0981485 0.000208528 0)
(0.0980274 0.000212446 0)
(0.0979068 0.000216159 0)
(0.097787 0.000219652 0)
(0.0976681 0.000222931 0)
(0.0975502 0.000226 0)
(0.0974333 0.000228857 0)
(0.0973177 0.000231489 0)
(0.0972033 0.000233875 0)
(0.0970904 0.000235989 0)
(0.096979 0.0002378 0)
(0.0968693 0.000239276 0)
(0.0967614 0.00024039 0)
(0.0966554 0.00024112 0)
(0.0965514 0.000241452 0)
(0.0964497 0.000241385 0)
(0.0963501 0.000240929 0)
(0.096253 0.000240109 0)
(0.0961582 0.000238966 0)
(0.0960659 0.000237558 0)
(0.095976 0.00023596 0)
(0.0958886 0.000234266 0)
(0.0958036 0.000232586 0)
(0.0957208 0.000231048 0)
(0.0956401 0.000229798 0)
(0.0955613 0.000229004 0)
(0.0954842 0.000228848 0)
(0.0954085 0.000229535 0)
(0.0953339 0.000231291 0)
(0.0952599 0.000234362 0)
(0.0951862 0.000239025 0)
(0.0951121 0.000245582 0)
(0.0950372 0.000254372 0)
(0.0949609 0.000265773 0)
(0.0948824 0.000280209 0)
(0.0948011 0.000298162 0)
(0.094716 0.000320184 0)
(0.0946264 0.000346909 0)
(0.0945312 0.000379071 0)
(0.0944294 0.00041753 0)
(0.0943197 0.000463295 0)
(0.0942009 0.000517561 0)
(0.0940716 0.000581748 0)
(0.0939303 0.000657557 0)
(0.0937753 0.000747034 0)
(0.0936046 0.000852653 0)
(0.0934165 0.00097742 0)
(0.0932087 0.001125 0)
(0.0929791 0.0012999 0)
(0.0927254 0.00150763 0)
(0.0924455 0.00175501 0)
(0.0921374 0.00205048 0)
(0.0917998 0.00240445 0)
(0.0914323 0.00282976 0)
(0.0910364 0.00334212 0)
(0.0906161 0.00396053 0)
(0.0901801 0.00470741 0)
(0.0897435 0.00560812 0)
(0.0893307 0.00668913 0)
(0.0889788 0.00797372 0)
(0.0887407 0.00947304 0)
(0.0886852 0.0111704 0)
(0.0888902 0.012997 0)
(0.0894212 0.0148014 0)
(0.0902804 0.0163324 0)
(0.100002 5.48713e-06 0)
(0.0999969 3.6954e-05 0)
(0.0999697 9.29557e-05 0)
(0.0999075 0.000159894 0)
(0.0998079 0.00021906 0)
(0.0996783 0.000257489 0)
(0.0995311 0.000272839 0)
(0.0993783 0.000271086 0)
(0.0992281 0.000261064 0)
(0.0990843 0.000250073 0)
(0.0989473 0.000242163 0)
(0.0988161 0.000238495 0)
(0.098689 0.000238521 0)
(0.0985647 0.000241085 0)
(0.0984422 0.000245074 0)
(0.0983208 0.000249685 0)
(0.0982004 0.000254433 0)
(0.0980808 0.000259073 0)
(0.097962 0.000263505 0)
(0.097844 0.0002677 0)
(0.097727 0.000271658 0)
(0.097611 0.00027538 0)
(0.097496 0.000278862 0)
(0.0973823 0.000282086 0)
(0.0972699 0.00028503 0)
(0.0971588 0.00028766 0)
(0.0970492 0.000289942 0)
(0.0969412 0.000291841 0)
(0.0968348 0.000293325 0)
(0.0967303 0.00029437 0)
(0.0966276 0.000294963 0)
(0.096527 0.000295102 0)
(0.0964283 0.000294802 0)
(0.0963318 0.000294097 0)
(0.0962375 0.000293035 0)
(0.0961453 0.000291688 0)
(0.0960553 0.000290147 0)
(0.0959674 0.000288525 0)
(0.0958815 0.000286955 0)
(0.0957976 0.000285591 0)
(0.0957154 0.00028461 0)
(0.0956348 0.000284208 0)
(0.0955556 0.000284609 0)
(0.0954774 0.000286054 0)
(0.0954 0.000288813 0)
(0.0953229 0.000293182 0)
(0.0952458 0.000299487 0)
(0.0951681 0.000308088 0)
(0.0950895 0.000319385 0)
(0.0950092 0.000333823 0)
(0.0949267 0.000351901 0)
(0.0948414 0.000374183 0)
(0.0947524 0.000401307 0)
(0.094659 0.000434009 0)
(0.0945604 0.000473132 0)
(0.0944557 0.000519655 0)
(0.0943438 0.00057472 0)
(0.0942238 0.000639668 0)
(0.0940945 0.000716075 0)
(0.0939547 0.000805811 0)
(0.0938033 0.000911094 0)
(0.093639 0.00103457 0)
(0.0934605 0.0011794 0)
(0.0932668 0.00134937 0)
(0.0930566 0.00154903 0)
(0.0928293 0.00178381 0)
(0.0925844 0.00206026 0)
(0.0923223 0.00238616 0)
(0.0920443 0.00277079 0)
(0.0917534 0.00322502 0)
(0.0914546 0.00376147 0)
(0.0911565 0.00439432 0)
(0.0908718 0.00513891 0)
(0.0906191 0.00601054 0)
(0.0904242 0.00702228 0)
(0.0903215 0.00818093 0)
(0.0903536 0.00948055 0)
(0.0905687 0.010893 0)
(0.0910123 0.012356 0)
(0.0917105 0.0137639 0)
(0.0926434 0.0149691 0)
(0.100002 5.56753e-06 0)
(0.099999 4.11691e-05 0)
(0.0999773 0.000105564 0)
(0.0999239 0.000183584 0)
(0.0998352 0.000253775 0)
(0.0997163 0.000300778 0)
(0.0995777 0.000321222 0)
(0.0994306 0.000321417 0)
(0.0992834 0.000311277 0)
(0.0991406 0.000299249 0)
(0.0990038 0.00029021 0)
(0.0988725 0.000285745 0)
(0.0987455 0.000285425 0)
(0.0986217 0.000288043 0)
(0.0985001 0.000292377 0)
(0.0983801 0.000297516 0)
(0.0982614 0.000302894 0)
(0.0981437 0.000308213 0)
(0.0980269 0.000313341 0)
(0.0979112 0.000318231 0)
(0.0977964 0.000322874 0)
(0.0976827 0.000327264 0)
(0.0975702 0.000331392 0)
(0.0974588 0.000335238 0)
(0.0973486 0.000338774 0)
(0.0972398 0.000341964 0)
(0.0971324 0.000344769 0)
(0.0970265 0.000347151 0)
(0.0969222 0.000349076 0)
(0.0968195 0.000350519 0)
(0.0967185 0.000351467 0)
(0.0966193 0.000351922 0)
(0.0965219 0.000351904 0)
(0.0964265 0.000351453 0)
(0.0963328 0.00035063 0)
(0.0962411 0.000349519 0)
(0.0961512 0.000348227 0)
(0.0960631 0.000346887 0)
(0.0959767 0.000345655 0)
(0.0958919 0.000344709 0)
(0.0958085 0.000344257 0)
(0.0957263 0.000344527 0)
(0.0956451 0.000345776 0)
(0.0955646 0.000348286 0)
(0.0954846 0.000352368 0)
(0.0954046 0.000358363 0)
(0.0953244 0.000366647 0)
(0.0952434 0.000377632 0)
(0.0951612 0.000391775 0)
(0.0950774 0.000409582 0)
(0.0949914 0.000431617 0)
(0.0949025 0.000458515 0)
(0.0948103 0.000490991 0)
(0.094714 0.000529859 0)
(0.0946129 0.000576048 0)
(0.0945063 0.000630628 0)
(0.0943936 0.000694831 0)
(0.0942738 0.000770091 0)
(0.0941463 0.000858072 0)
(0.0940103 0.000960721 0)
(0.0938651 0.00108031 0)
(0.09371 0.00121951 0)
(0.0935446 0.00138144 0)
(0.0933685 0.00156975 0)
(0.0931817 0.00178872 0)
(0.0929849 0.00204331 0)
(0.092779 0.00233928 0)
(0.0925662 0.00268323 0)
(0.0923499 0.00308261 0)
(0.092135 0.00354569 0)
(0.0919289 0.0040814 0)
(0.0917418 0.00469888 0)
(0.0915874 0.0054068 0)
(0.0914837 0.00621209 0)
(0.0914534 0.00711808 0)
(0.0915234 0.00812158 0)
(0.0917242 0.00920903 0)
(0.0920854 0.0103518 0)
(0.0926307 0.0115018 0)
(0.093367 0.01259 0)
(0.094273 0.0135321 0)
(0.100002 5.30344e-06 0)
(0.100001 4.44627e-05 0)
(0.0999848 0.000116674 0)
(0.0999405 0.000205544 0)
(0.0998632 0.000287117 0)
(0.0997557 0.000343596 0)
(0.0996266 0.000370301 0)
(0.0994861 0.000373554 0)
(0.0993428 0.000364122 0)
(0.099202 0.000351531 0)
(0.0990659 0.000341533 0)
(0.0989349 0.000336235 0)
(0.0988084 0.00033543 0)
(0.0986855 0.00033793 0)
(0.0985652 0.000342449 0)
(0.0984469 0.000347988 0)
(0.0983301 0.000353902 0)
(0.0982146 0.000359836 0)
(0.0981003 0.000365621 0)
(0.0979871 0.000371187 0)
(0.097875 0.00037651 0)
(0.097764 0.000381574 0)
(0.0976541 0.000386365 0)
(0.0975454 0.000390858 0)
(0.097438 0.00039502 0)
(0.0973318 0.000398812 0)
(0.0972269 0.000402194 0)
(0.0971235 0.000405123 0)
(0.0970215 0.000407567 0)
(0.096921 0.000409501 0)
(0.096822 0.000410913 0)
(0.0967246 0.00041181 0)
(0.0966288 0.000412218 0)
(0.0965346 0.000412184 0)
(0.0964421 0.000411782 0)
(0.0963511 0.00041111 0)
(0.0962616 0.00041029 0)
(0.0961735 0.000409474 0)
(0.0960868 0.000408839 0)
(0.0960014 0.000408592 0)
(0.095917 0.000408964 0)
(0.0958334 0.000410216 0)
(0.0957506 0.000412638 0)
(0.0956681 0.000416546 0)
(0.0955858 0.000422292 0)
(0.0955034 0.000430257 0)
(0.0954204 0.000440861 0)
(0.0953365 0.000454564 0)
(0.0952514 0.00047187 0)
(0.0951646 0.000493338 0)
(0.0950757 0.000519585 0)
(0.0949841 0.000551301 0)
(0.0948895 0.000589257 0)
(0.0947912 0.000634323 0)
(0.0946889 0.000687482 0)
(0.094582 0.000749854 0)
(0.0944699 0.000822715 0)
(0.0943523 0.000907524 0)
(0.0942287 0.00100596 0)
(0.0940988 0.00111994 0)
(0.0939623 0.00125167 0)
(0.0938193 0.00140368 0)
(0.0936698 0.00157887 0)
(0.0935144 0.00178053 0)
(0.0933541 0.0020124 0)
(0.0931903 0.00227864 0)
(0.0930253 0.00258392 0)
(0.0928624 0.00293327 0)
(0.092706 0.00333208 0)
(0.0925623 0.00378586 0)
(0.092439 0.00429997 0)
(0.0923464 0.00487913 0)
(0.092297 0.00552672 0)
(0.0923058 0.00624378 0)
(0.0923905 0.00702772 0)
(0.0925702 0.00787058 0)
(0.0928642 0.00875716 0)
(0.0932893 0.00966318 0)
(0.0938559 0.0105543 0)
(0.0945631 0.011387 0)
(0.0953935 0.0121135 0)
(0.100002 4.67614e-06 0)
(0.100003 4.67381e-05 0)
(0.0999917 0.000126058 0)
(0.0999562 0.000225396 0)
(0.0998901 0.000318596 0)
(0.0997942 0.00038542 0)
(0.0996753 0.000419608 0)
(0.0995424 0.000427136 0)
(0.0994039 0.000419367 0)
(0.0992658 0.0004068 0)
(0.0991313 0.000396091 0)
(0.0990014 0.000389972 0)
(0.0988759 0.000388557 0)
(0.0987542 0.000390767 0)
(0.0986356 0.0003953 0)
(0.0985193 0.000401092 0)
(0.0984048 0.00040743 0)
(0.0982919 0.0004139 0)
(0.0981803 0.00042029 0)
(0.09807 0.000426502 0)
(0.0979608 0.00043249 0)
(0.0978527 0.000438229 0)
(0.0977458 0.000443695 0)
(0.0976401 0.000448857 0)
(0.0975356 0.000453678 0)
(0.0974323 0.000458118 0)
(0.0973302 0.000462133 0)
(0.0972295 0.000465682 0)
(0.0971301 0.000468731 0)
(0.097032 0.000471258 0)
(0.0969353 0.000473257 0)
(0.0968399 0.000474737 0)
(0.096746 0.000475733 0)
(0.0966533 0.000476301 0)
(0.096562 0.000476526 0)
(0.096472 0.000476519 0)
(0.0963831 0.00047642 0)
(0.0962954 0.000476398 0)
(0.0962087 0.000476651 0)
(0.0961228 0.000477408 0)
(0.0960377 0.000478925 0)
(0.0959531 0.000481493 0)
(0.0958689 0.000485428 0)
(0.0957849 0.000491082 0)
(0.0957007 0.000498837 0)
(0.0956162 0.000509111 0)
(0.095531 0.000522361 0)
(0.0954448 0.000539084 0)
(0.0953574 0.000559823 0)
(0.0952684 0.000585174 0)
(0.0951774 0.000615792 0)
(0.0950841 0.000652402 0)
(0.0949881 0.000695807 0)
(0.0948892 0.000746903 0)
(0.094787 0.000806689 0)
(0.0946812 0.000876289 0)
(0.0945717 0.000956965 0)
(0.0944581 0.00105014 0)
(0.0943405 0.00115741 0)
(0.0942189 0.00128058 0)
(0.0940936 0.00142166 0)
(0.093965 0.00158291 0)
(0.0938339 0.00176685 0)
(0.0937014 0.00197621 0)
(0.0935691 0.00221402 0)
(0.0934393 0.00248348 0)
(0.0933149 0.00278796 0)
(0.0931997 0.0031309 0)
(0.0930985 0.00351564 0)
(0.0930175 0.00394519 0)
(0.0929641 0.00442195 0)
(0.0929472 0.00494726 0)
(0.0929769 0.00552089 0)
(0.0930649 0.00614036 0)
(0.0932234 0.00680019 0)
(0.0934648 0.00749108 0)
(0.0938004 0.00819921 0)
(0.0942385 0.00890579 0)
(0.0947826 0.00958727 0)
(0.0954289 0.0102167 0)
(0.0961645 0.0107667 0)
(0.100002 3.69407e-06 0)
(0.100004 4.7979e-05 0)
(0.0999976 0.00013363 0)
(0.09997 0.000242939 0)
(0.0999145 0.000347885 0)
(0.09983 0.000425831 0)
(0.0997214 0.000468691 0)
(0.0995966 0.000481748 0)
(0.099464 0.000476672 0)
(0.0993297 0.000464809 0)
(0.0991976 0.000453726 0)
(0.0990696 0.000446861 0)
(0.0989458 0.000444755 0)
(0.0988259 0.000446521 0)
(0.0987093 0.0004509 0)
(0.0985953 0.000456796 0)
(0.0984835 0.000463438 0)
(0.0983733 0.000470356 0)
(0.0982647 0.000477291 0)
(0.0981574 0.00048411 0)
(0.0980514 0.000490746 0)
(0.0979465 0.000497157 0)
(0.0978428 0.000503308 0)
(0.0977402 0.000509162 0)
(0.0976388 0.00051468 0)
(0.0975386 0.000519816 0)
(0.0974395 0.000524529 0)
(0.0973416 0.000528776 0)
(0.0972449 0.000532528 0)
(0.0971494 0.000535765 0)
(0.0970551 0.000538485 0)
(0.0969619 0.000540706 0)
(0.0968699 0.00054247 0)
(0.0967789 0.000543844 0)
(0.096689 0.000544923 0)
(0.0966001 0.000545831 0)
(0.0965121 0.000546723 0)
(0.0964248 0.000547784 0)
(0.0963383 0.000549232 0)
(0.0962523 0.000551316 0)
(0.0961668 0.000554314 0)
(0.0960815 0.000558539 0)
(0.0959963 0.000564333 0)
(0.095911 0.000572073 0)
(0.0958254 0.000582169 0)
(0.0957394 0.000595066 0)
(0.0956525 0.000611247 0)
(0.0955648 0.000631234 0)
(0.0954758 0.000655597 0)
(0.0953854 0.000684953 0)
(0.0952933 0.000719973 0)
(0.0951994 0.000761394 0)
(0.0951034 0.000810022 0)
(0.0950052 0.000866743 0)
(0.0949046 0.000932535 0)
(0.0948016 0.00100848 0)
(0.0946962 0.00109576 0)
(0.0945886 0.00119569 0)
(0.0944789 0.00130972 0)
(0.0943677 0.00143945 0)
(0.0942554 0.00158659 0)
(0.0941431 0.00175303 0)
(0.0940318 0.00194077 0)
(0.0939232 0.00215192 0)
(0.0938193 0.00238868 0)
(0.0937226 0.00265324 0)
(0.0936364 0.00294773 0)
(0.0935644 0.00327408 0)
(0.0935114 0.00363387 0)
(0.0934829 0.00402812 0)
(0.093485 0.00445706 0)
(0.093525 0.00491979 0)
(0.0936104 0.00541397 0)
(0.0937495 0.00593544 0)
(0.09395 0.00647789 0)
(0.0942193 0.00703253 0)
(0.0945633 0.00758803 0)
(0.0949854 0.00813055 0)
(0.0954856 0.00864434 0)
(0.0960594 0.00911267 0)
(0.0966976 0.00951954 0)
(0.100002 2.38929e-06 0)
(0.100006 4.82494e-05 0)
(0.100002 0.000139449 0)
(0.0999815 0.000258165 0)
(0.0999353 0.000374848 0)
(0.0998614 0.000464546 0)
(0.0997629 0.00051716 0)
(0.0996468 0.000536952 0)
(0.0995207 0.000535621 0)
(0.0993912 0.000525206 0)
(0.0992627 0.000514166 0)
(0.0991373 0.000506707 0)
(0.0990159 0.000503888 0)
(0.0988984 0.000505099 0)
(0.0987843 0.000509184 0)
(0.098673 0.000515047 0)
(0.098564 0.000521878 0)
(0.0984569 0.000529155 0)
(0.0983514 0.000536572 0)
(0.0982473 0.00054396 0)
(0.0981445 0.000551225 0)
(0.0980429 0.000558305 0)
(0.0979425 0.000565155 0)
(0.0978432 0.00057173 0)
(0.097745 0.000577986 0)
(0.0976479 0.000583877 0)
(0.0975519 0.000589361 0)
(0.0974569 0.000594398 0)
(0.097363 0.000598962 0)
(0.0972701 0.000603039 0)
(0.0971782 0.000606633 0)
(0.0970872 0.00060977 0)
(0.0969972 0.000612499 0)
(0.096908 0.000614898 0)
(0.0968195 0.000617072 0)
(0.0967318 0.000619159 0)
(0.0966447 0.000621327 0)
(0.0965581 0.000623774 0)
(0.0964719 0.000626735 0)
(0.096386 0.000630473 0)
(0.0963003 0.000635285 0)
(0.0962146 0.000641502 0)
(0.0961288 0.000649485 0)
(0.0960427 0.000659628 0)
(0.0959563 0.00067236 0)
(0.0958692 0.000688142 0)
(0.0957815 0.000707473 0)
(0.0956928 0.000730886 0)
(0.0956032 0.000758958 0)
(0.0955124 0.000792308 0)
(0.0954203 0.000831604 0)
(0.0953269 0.000877565 0)
(0.0952321 0.00093097 0)
(0.0951359 0.000992661 0)
(0.0950384 0.00106355 0)
(0.0949398 0.00114462 0)
(0.0948403 0.00123694 0)
(0.0947402 0.00134166 0)
(0.0946401 0.00146 0)
(0.0945407 0.00159328 0)
(0.0944429 0.00174287 0)
(0.0943478 0.0019102 0)
(0.094257 0.00209672 0)
(0.0941721 0.00230387 0)
(0.0940954 0.00253304 0)
(0.0940294 0.00278548 0)
(0.0939774 0.0030622 0)
(0.0939427 0.00336392 0)
(0.0939295 0.00369085 0)
(0.0939423 0.00404261 0)
(0.0939861 0.00441803 0)
(0.094066 0.00481495 0)
(0.0941874 0.00523008 0)
(0.0943555 0.00565882 0)
(0.094575 0.00609516 0)
(0.0948497 0.00653165 0)
(0.0951823 0.00695951 0)
(0.0955733 0.00736889 0)
(0.0960213 0.0077493 0)
(0.0965222 0.00809029 0)
(0.0970692 0.00838233 0)
(0.100002 8.10909e-07 0)
(0.100006 4.76756e-05 0)
(0.100006 0.0001437 0)
(0.0999903 0.000271238 0)
(0.0999521 0.000399531 0)
(0.0998876 0.000501436 0)
(0.0997988 0.000564709 0)
(0.0996914 0.000592326 0)
(0.0995725 0.000595753 0)
(0.0994487 0.000587559 0)
(0.0993246 0.000577046 0)
(0.0992029 0.000569227 0)
(0.0990846 0.000565751 0)
(0.09897 0.000566356 0)
(0.0988588 0.000570045 0)
(0.0987505 0.000575767 0)
(0.0986446 0.000582688 0)
(0.0985407 0.000590246 0)
(0.0984384 0.00059809 0)
(0.0983377 0.000606013 0)
(0.0982382 0.000613892 0)
(0.09814 0.000621647 0)
(0.0980429 0.000629217 0)
(0.0979469 0.000636551 0)
(0.0978519 0.000643599 0)
(0.0977579 0.000650315 0)
(0.0976649 0.000656657 0)
(0.0975728 0.00066259 0)
(0.0974816 0.000668092 0)
(0.0973912 0.000673155 0)
(0.0973017 0.000677791 0)
(0.0972129 0.000682032 0)
(0.0971248 0.000685938 0)
(0.0970373 0.000689596 0)
(0.0969504 0.000693121 0)
(0.0968639 0.00069666 0)
(0.0967778 0.000700392 0)
(0.0966919 0.000704529 0)
(0.0966063 0.000709314 0)
(0.0965207 0.000715025 0)
(0.096435 0.000721969 0)
(0.0963493 0.000730488 0)
(0.0962633 0.000740954 0)
(0.0961769 0.000753771 0)
(0.0960901 0.000769375 0)
(0.0960027 0.00078823 0)
(0.0959147 0.000810837 0)
(0.0958261 0.000837725 0)
(0.0957366 0.00086946 0)
(0.0956464 0.000906641 0)
(0.0955554 0.000949906 0)
(0.0954637 0.000999933 0)
(0.0953714 0.00105744 0)
(0.0952786 0.00112319 0)
(0.0951856 0.00119799 0)
(0.0950928 0.0012827 0)
(0.0950005 0.0013782 0)
(0.0949093 0.00148544 0)
(0.09482 0.00160539 0)
(0.0947334 0.00173902 0)
(0.0946506 0.00188733 0)
(0.094573 0.00205128 0)
(0.094502 0.00223178 0)
(0.0944396 0.00242964 0)
(0.0943878 0.00264552 0)
(0.094349 0.00287986 0)
(0.0943261 0.00313282 0)
(0.094322 0.00340418 0)
(0.09434 0.00369325 0)
(0.0943835 0.00399877 0)
(0.0944563 0.00431882 0)
(0.0945618 0.00465073 0)
(0.0947035 0.00499102 0)
(0.0948844 0.00533533 0)
(0.0951071 0.00567849 0)
(0.0953731 0.00601458 0)
(0.0956833 0.00633705 0)
(0.0960369 0.00663899 0)
(0.0964319 0.00691345 0)
(0.0968649 0.0071538 0)
(0.0973307 0.00735424 0)
(0.100002 -9.83546e-07 0)
(0.100007 4.64201e-05 0)
(0.100008 0.000146644 0)
(0.0999967 0.000282444 0)
(0.0999649 0.00042213 0)
(0.0999086 0.000536511 0)
(0.0998287 0.000611139 0)
(0.0997298 0.000647503 0)
(0.0996186 0.000656611 0)
(0.0995012 0.000651399 0)
(0.0993823 0.000641947 0)
(0.0992649 0.000634077 0)
(0.0991505 0.000630076 0)
(0.0990394 0.000630093 0)
(0.0989315 0.000633344 0)
(0.0988265 0.000638854 0)
(0.0987238 0.000645796 0)
(0.0986233 0.000653576 0)
(0.0985244 0.000661806 0)
(0.098427 0.000670243 0)
(0.0983309 0.000678734 0)
(0.098236 0.00068718 0)
(0.0981422 0.000695505 0)
(0.0980494 0.000703649 0)
(0.0979576 0.000711558 0)
(0.0978667 0.000719185 0)
(0.0977766 0.00072649 0)
(0.0976873 0.000733443 0)
(0.0975987 0.000740025 0)
(0.0975108 0.000746237 0)
(0.0974236 0.000752097 0)
(0.0973369 0.000757647 0)
(0.0972507 0.000762954 0)
(0.0971649 0.000768112 0)
(0.0970794 0.000773246 0)
(0.0969942 0.00077851 0)
(0.0969091 0.000784093 0)
(0.0968241 0.000790212 0)
(0.0967391 0.000797117 0)
(0.096654 0.000805092 0)
(0.0965688 0.000814451 0)
(0.0964833 0.000825538 0)
(0.0963975 0.000838727 0)
(0.0963114 0.000854419 0)
(0.0962248 0.000873047 0)
(0.0961378 0.000895067 0)
(0.0960503 0.000920963 0)
(0.0959624 0.000951244 0)
(0.0958741 0.000986443 0)
(0.0957855 0.00102712 0)
(0.0956967 0.00107386 0)
(0.0956078 0.00112727 0)
(0.0955192 0.00118798 0)
(0.095431 0.00125665 0)
(0.0953437 0.00133395 0)
(0.0952578 0.00142056 0)
(0.0951738 0.00151718 0)
(0.0950924 0.00162451 0)
(0.0950146 0.00174324 0)
(0.0949412 0.00187401 0)
(0.0948734 0.00201744 0)
(0.0948126 0.00217404 0)
(0.0947602 0.00234423 0)
(0.0947181 0.00252828 0)
(0.0946881 0.00272627 0)
(0.0946723 0.00293801 0)
(0.0946729 0.00316306 0)
(0.0946925 0.00340057 0)
(0.0947334 0.00364933 0)
(0.0947982 0.00390764 0)
(0.0948892 0.00417332 0)
(0.0950089 0.00444364 0)
(0.0951591 0.00471536 0)
(0.0953415 0.00498473 0)
(0.0955572 0.00524755 0)
(0.0958065 0.00549928 0)
(0.0960892 0.00573517 0)
(0.096404 0.00595042 0)
(0.0967491 0.0061404 0)
(0.0971214 0.00630088 0)
(0.0975171 0.0064282 0)
(0.100002 -2.938e-06 0)
(0.100007 4.46539e-05 0)
(0.100009 0.000148572 0)
(0.100001 0.000292132 0)
(0.0999742 0.000442932 0)
(0.0999249 0.00056989 0)
(0.0998529 0.000656354 0)
(0.0997623 0.000702194 0)
(0.0996587 0.00071778 0)
(0.0995481 0.000716268 0)
(0.0994351 0.000708427 0)