/*--------------------------------*- C++ -*----------------------------------*\
| =========                 |                                                 |
| \\      /  F ield         | OpenFOAM: The Open Source CFD Toolbox           |
|  \\    /   O peration     | Version:  4.1                                   |
|   \\  /    A nd           | Web:      www.OpenFOAM.org                      |
|    \\/     M anipulation  |                                                 |
\*---------------------------------------------------------------------------*/
FoamFile
{
    version     2.0;
    format      ascii;
    class       surfaceScalarField;
    location    "0.2";
    object      phi;
}
// * * * * * * * * * * * * * * * * * * * * * * * * * * * * * * * * * * * * * //

dimensions      [1 0 -1 0 0 0 0];

internalField   nonuniform List<scalar> 
23692
(
1.16096e-05
2.53851e-08
1.15682e-05
4.13143e-08
1.15301e-05
3.81822e-08
1.15033e-05
2.67454e-08
1.14848e-05
1.85023e-08
1.14692e-05
1.55878e-08
1.14535e-05
1.57704e-08
1.14366e-05
1.6909e-08
1.14186e-05
1.79817e-08
1.13998e-05
1.87267e-08
1.13807e-05
1.91826e-08
1.13612e-05
1.94504e-08
1.13416e-05
1.96137e-08
1.13219e-05
1.97259e-08
1.13021e-05
1.98174e-08
1.12822e-05
1.99037e-08
1.12622e-05
1.99911e-08
1.12421e-05
2.00807e-08
1.12219e-05
2.01708e-08
1.12017e-05
2.02595e-08
1.11813e-05
2.03437e-08
1.11609e-05
2.04225e-08
1.11404e-05
2.04942e-08
1.11199e-05
2.05595e-08
1.10993e-05
2.06184e-08
1.10787e-05
2.06725e-08
1.1058e-05
2.07223e-08
1.10373e-05
2.07693e-08
1.10165e-05
2.08152e-08
1.09957e-05
2.08613e-08
1.09749e-05
2.09089e-08
1.0954e-05
2.0959e-08
1.09332e-05
2.10125e-08
1.09122e-05
2.10693e-08
1.08913e-05
2.11297e-08
1.08703e-05
2.11923e-08
1.08493e-05
2.12565e-08
1.08282e-05
2.1321e-08
1.08072e-05
2.13851e-08
1.07861e-05
2.14485e-08
1.07649e-05
2.1511e-08
1.07438e-05
2.15728e-08
1.07227e-05
2.16338e-08
1.07016e-05
2.16949e-08
1.06804e-05
2.17574e-08
1.06593e-05
2.18226e-08
1.06381e-05
2.18926e-08
1.06169e-05
2.19703e-08
1.05958e-05
2.20586e-08
1.05745e-05
2.2162e-08
1.05533e-05
2.22854e-08
1.05319e-05
2.24352e-08
1.05105e-05
2.26192e-08
1.04889e-05
2.2847e-08
1.0467e-05
2.31301e-08
1.04449e-05
2.34828e-08
1.04225e-05
2.39223e-08
1.03996e-05
2.447e-08
1.0376e-05
2.51524e-08
1.03517e-05
2.60025e-08
1.03264e-05
2.70613e-08
1.02998e-05
2.83814e-08
1.02716e-05
3.00294e-08
1.02415e-05
3.20915e-08
1.02088e-05
3.46805e-08
1.01729e-05
3.79451e-08
1.0133e-05
4.20856e-08
1.00877e-05
4.73746e-08
1.00358e-05
5.41899e-08
9.97495e-06
6.30645e-08
9.90249e-06
7.47641e-08
9.81441e-06
9.04105e-08
9.70511e-06
1.11678e-07
9.5664e-06
1.41107e-07
9.38622e-06
1.82619e-07
9.14634e-06
2.42331e-07
8.81901e-06
3.29818e-07
8.36133e-06
4.60176e-07
7.70515e-06
6.58692e-07
6.73552e-06
9.72164e-07
1.52421e-06
5.21385e-06
1.24239e-05
5.13842e-08
1.23806e-05
8.46267e-08
1.23401e-05
7.87244e-08
1.23113e-05
5.54787e-08
1.22913e-05
3.85848e-08
1.22743e-05
3.25255e-08
1.22573e-05
3.28081e-08
1.22391e-05
3.50754e-08
1.22199e-05
3.72332e-08
1.21998e-05
3.87385e-08
1.21794e-05
3.96617e-08
1.21586e-05
4.02057e-08
1.21377e-05
4.05383e-08
1.21166e-05
4.07681e-08
1.20955e-05
4.09563e-08
1.20743e-05
4.11338e-08
1.2053e-05
4.13137e-08
1.20315e-05
4.14981e-08
1.201e-05
4.16837e-08
1.19884e-05
4.18657e-08
1.19668e-05
4.20397e-08
1.1945e-05
4.22018e-08
1.19231e-05
4.23505e-08
1.19012e-05
4.24852e-08
1.18793e-05
4.26078e-08
1.18573e-05
4.272e-08
1.18352e-05
4.2824e-08
1.18131e-05
4.29228e-08
1.1791e-05
4.3019e-08
1.17688e-05
4.31158e-08
1.17466e-05
4.32161e-08
1.17243e-05
4.33215e-08
1.1702e-05
4.34334e-08
1.16797e-05
4.3553e-08
1.16574e-05
4.36792e-08
1.1635e-05
4.38105e-08
1.16125e-05
4.39444e-08
1.15901e-05
4.40792e-08
1.15676e-05
4.42134e-08
1.1545e-05
4.43457e-08
1.15225e-05
4.44763e-08
1.14999e-05
4.4605e-08
1.14774e-05
4.47325e-08
1.14548e-05
4.48602e-08
1.14322e-05
4.49904e-08
1.14096e-05
4.51264e-08
1.13871e-05
4.52721e-08
1.13645e-05
4.54333e-08
1.13418e-05
4.56168e-08
1.13192e-05
4.58307e-08
1.12965e-05
4.60857e-08
1.12737e-05
4.63946e-08
1.12508e-05
4.67735e-08
1.12277e-05
4.72418e-08
1.12044e-05
4.78229e-08
1.11808e-05
4.85456e-08
1.11569e-05
4.94451e-08
1.11324e-05
5.05647e-08
1.11073e-05
5.19575e-08
1.10814e-05
5.36897e-08
1.10545e-05
5.58444e-08
1.10263e-05
5.85256e-08
1.09965e-05
6.18662e-08
1.09646e-05
6.60367e-08
1.09302e-05
7.12582e-08
1.08925e-05
7.78219e-08
1.08507e-05
8.61142e-08
1.08037e-05
9.66572e-08
1.07501e-05
1.10165e-07
1.0688e-05
1.2763e-07
1.06147e-05
1.50453e-07
1.0527e-05
1.8064e-07
1.04201e-05
2.21103e-07
1.02877e-05
2.76112e-07
1.0121e-05
3.51958e-07
9.90806e-06
4.5785e-07
9.63365e-06
6.06886e-07
9.27982e-06
8.16678e-07
8.83212e-06
1.10907e-06
8.30556e-06
1.50143e-06
1.94423e-06
7.88825e-06
1.32965e-05
7.68472e-08
1.32523e-05
1.28817e-07
1.321e-05
1.21092e-07
1.3179e-05
8.64823e-08
1.31567e-05
6.08018e-08
1.3138e-05
5.12931e-08
1.31193e-05
5.1429e-08
1.30997e-05
5.46772e-08
1.30791e-05
5.7848e-08
1.30578e-05
6.00822e-08
1.3036e-05
6.14622e-08
1.30139e-05
6.22806e-08
1.29917e-05
6.2784e-08
1.29693e-05
6.31345e-08
1.29468e-05
6.34229e-08
1.29243e-05
6.36957e-08
1.29016e-05
6.39719e-08
1.28789e-05
6.42553e-08
1.2856e-05
6.4541e-08
1.28331e-05
6.48213e-08
1.281e-05
6.50889e-08
1.27869e-05
6.53391e-08
1.27637e-05
6.5569e-08
1.27404e-05
6.57783e-08
1.27171e-05
6.59692e-08
1.26937e-05
6.61451e-08
1.26703e-05
6.63091e-08
1.26468e-05
6.64655e-08
1.26233e-05
6.66188e-08
1.25997e-05
6.67732e-08
1.25761e-05
6.69329e-08
1.25524e-05
6.71011e-08
1.25287e-05
6.72792e-08
1.2505e-05
6.74685e-08
1.24812e-05
6.7668e-08
1.24573e-05
6.78748e-08
1.24335e-05
6.80856e-08
1.24096e-05
6.82973e-08
1.23856e-05
6.85076e-08
1.23617e-05
6.87152e-08
1.23377e-05
6.89194e-08
1.23137e-05
6.91206e-08
1.22896e-05
6.93194e-08
1.22656e-05
6.95185e-08
1.22416e-05
6.9721e-08
1.22176e-05
6.99321e-08
1.21935e-05
7.01581e-08
1.21695e-05
7.04075e-08
1.21454e-05
7.06904e-08
1.21213e-05
7.10199e-08
1.20971e-05
7.14115e-08
1.20729e-05
7.18853e-08
1.20485e-05
7.24652e-08
1.2024e-05
7.31807e-08
1.19992e-05
7.4067e-08
1.19742e-05
7.51675e-08
1.19488e-05
7.65351e-08
1.19229e-05
7.82343e-08
1.18963e-05
8.03443e-08
1.1869e-05
8.29633e-08
1.18406e-05
8.62133e-08
1.18109e-05
9.02476e-08
1.17797e-05
9.52591e-08
1.17464e-05
1.01494e-07
1.17107e-05
1.09269e-07
1.16719e-05
1.18994e-07
1.16292e-05
1.31209e-07
1.15817e-05
1.4663e-07
1.15282e-05
1.66218e-07
1.14671e-05
1.91276e-07
1.13966e-05
2.23594e-07
1.13143e-05
2.65649e-07
1.12172e-05
3.20886e-07
1.11019e-05
3.94098e-07
1.09648e-05
4.91879e-07
1.08024e-05
6.23013e-07
1.06138e-05
7.98381e-07
1.04039e-05
1.0294e-06
1.0193e-05
1.32289e-06
1.00326e-05
1.66467e-06
1.97423e-06
1.00055e-05
1.42314e-05
1.00609e-07
1.41878e-05
1.72412e-07
1.41442e-05
1.64661e-07
1.41107e-05
1.19982e-07
1.40858e-05
8.57197e-08
1.40647e-05
7.24085e-08
1.40441e-05
7.19781e-08
1.40229e-05
7.59077e-08
1.40008e-05
7.99199e-08
1.39781e-05
8.27987e-08
1.3955e-05
8.45971e-08
1.39316e-05
8.56747e-08
1.3908e-05
8.63447e-08
1.38843e-05
8.68163e-08
1.38605e-05
8.72067e-08
1.38367e-05
8.75777e-08
1.38127e-05
8.79536e-08
1.37886e-05
8.83391e-08
1.37644e-05
8.87275e-08
1.37401e-05
8.91089e-08
1.37158e-05
8.94738e-08
1.36913e-05
8.98161e-08
1.36668e-05
9.01317e-08
1.36421e-05
9.04206e-08
1.36175e-05
9.06858e-08
1.35927e-05
9.09322e-08
1.35679e-05
9.11637e-08
1.3543e-05
9.13856e-08
1.35181e-05
9.16047e-08
1.34932e-05
9.18262e-08
1.34682e-05
9.2055e-08
1.34431e-05
9.22953e-08
1.3418e-05
9.2549e-08
1.33928e-05
9.28171e-08
1.33676e-05
9.30983e-08
1.33423e-05
9.33887e-08
1.3317e-05
9.36838e-08
1.32917e-05
9.39793e-08
1.32663e-05
9.4272e-08
1.32409e-05
9.456e-08
1.32154e-05
9.48426e-08
1.319e-05
9.51201e-08
1.31645e-05
9.53937e-08
1.3139e-05
9.56667e-08
1.31136e-05
9.59437e-08
1.30881e-05
9.6231e-08
1.30626e-05
9.65379e-08
1.30371e-05
9.68754e-08
1.30116e-05
9.72572e-08
1.29861e-05
9.77005e-08
1.29605e-05
9.82267e-08
1.29349e-05
9.88622e-08
1.29091e-05
9.9639e-08
1.28832e-05
1.00596e-07
1.28571e-05
1.0178e-07
1.28307e-05
1.03248e-07
1.2804e-05
1.05069e-07
1.27767e-05
1.07327e-07
1.27489e-05
1.10127e-07
1.27203e-05
1.13592e-07
1.26908e-05
1.17882e-07
1.266e-05
1.23188e-07
1.26278e-05
1.29754e-07
1.25938e-05
1.37886e-07
1.25575e-05
1.47971e-07
1.25185e-05
1.60503e-07
1.24762e-05
1.7612e-07
1.24298e-05
1.95651e-07
1.23786e-05
2.20174e-07
1.23215e-05
2.51111e-07
1.22575e-05
2.90338e-07
1.21857e-05
3.40331e-07
1.21051e-05
4.04352e-07
1.20155e-05
4.86627e-07
1.19179e-05
5.92467e-07
1.18158e-05
7.28105e-07
1.17174e-05
8.99812e-07
1.16384e-05
1.11142e-06
1.16056e-05
1.35875e-06
1.16551e-05
1.6183e-06
1.82893e-06
1.18035e-05
1.52326e-05
1.21594e-07
1.51911e-05
2.13956e-07
1.51471e-05
2.08703e-07
1.5111e-05
1.56064e-07
1.50829e-05
1.13807e-07
1.5059e-05
9.63432e-08
1.50361e-05
9.47866e-08
1.50131e-05
9.89566e-08
1.49895e-05
1.03542e-07
1.49653e-05
1.06923e-07
1.49409e-05
1.09072e-07
1.49162e-05
1.10378e-07
1.48913e-05
1.11202e-07
1.48663e-05
1.11791e-07
1.48413e-05
1.12285e-07
1.48161e-05
1.12755e-07
1.47908e-05
1.13232e-07
1.47654e-05
1.13721e-07
1.474e-05
1.14214e-07
1.47144e-05
1.14699e-07
1.46887e-05
1.15163e-07
1.46629e-05
1.15601e-07
1.46371e-05
1.16007e-07
1.46111e-05
1.16382e-07
1.45851e-05
1.16728e-07
1.4559e-05
1.17053e-07
1.45329e-05
1.17361e-07
1.45067e-05
1.17659e-07
1.44804e-05
1.17955e-07
1.44541e-05
1.18255e-07
1.44277e-05
1.18566e-07
1.44012e-05
1.1889e-07
1.43747e-05
1.1923e-07
1.43481e-05
1.19588e-07
1.43215e-05
1.19961e-07
1.42948e-05
1.20344e-07
1.42681e-05
1.20731e-07
1.42413e-05
1.21116e-07
1.42145e-05
1.21496e-07
1.41876e-05
1.21869e-07
1.41607e-05
1.22233e-07
1.41339e-05
1.22588e-07
1.4107e-05
1.22936e-07
1.40801e-05
1.23282e-07
1.40532e-05
1.23631e-07
1.40263e-05
1.2399e-07
1.39994e-05
1.24372e-07
1.39726e-05
1.2479e-07
1.39457e-05
1.25262e-07
1.39188e-05
1.25808e-07
1.38919e-05
1.26455e-07
1.38649e-05
1.27236e-07
1.38379e-05
1.28189e-07
1.38107e-05
1.29363e-07
1.37834e-05
1.30814e-07
1.37559e-05
1.32612e-07
1.3728e-05
1.3484e-07
1.36997e-05
1.37599e-07
1.36709e-05
1.41011e-07
1.36415e-05
1.45224e-07
1.36112e-05
1.50421e-07
1.35799e-05
1.56826e-07
1.35474e-05
1.64713e-07
1.35134e-05
1.74425e-07
1.34775e-05
1.86386e-07
1.34396e-05
2.0113e-07
1.33991e-05
2.19323e-07
1.33558e-05
2.41807e-07
1.33092e-05
2.69643e-07
1.3259e-05
3.04171e-07
1.32053e-05
3.47071e-07
1.31482e-05
4.00434e-07
1.30888e-05
4.66818e-07
1.30293e-05
5.49243e-07
1.29739e-05
6.51051e-07
1.29298e-05
7.75455e-07
1.29083e-05
9.24463e-07
1.29262e-05
1.09674e-06
1.30044e-05
1.28387e-06
1.3161e-05
1.46492e-06
1.60142e-06
1.33918e-05
1.63046e-05
1.39043e-07
1.62663e-05
2.52244e-07
1.62226e-05
2.52465e-07
1.6184e-05
1.94599e-07
1.61525e-05
1.45316e-07
1.61254e-05
1.23431e-07
1.61001e-05
1.20118e-07
1.60751e-05
1.23988e-07
1.60498e-05
1.28798e-07
1.60243e-05
1.32487e-07
1.59984e-05
1.34888e-07
1.59724e-05
1.36377e-07
1.59463e-05
1.37335e-07
1.59201e-05
1.38033e-07
1.58937e-05
1.38626e-07
1.58673e-05
1.39195e-07
1.58408e-05
1.39773e-07
1.58141e-05
1.40367e-07
1.57874e-05
1.40965e-07
1.57605e-05
1.41553e-07
1.57336e-05
1.4212e-07
1.57065e-05
1.42657e-07
1.56794e-05
1.43158e-07
1.56522e-05
1.43624e-07
1.56249e-05
1.4406e-07
1.55975e-05
1.44473e-07
1.55701e-05
1.4487e-07
1.55425e-05
1.45257e-07
1.55149e-05
1.45644e-07
1.54872e-05
1.46037e-07
1.54595e-05
1.46442e-07
1.54317e-05
1.46865e-07
1.54038e-05
1.47305e-07
1.53758e-05
1.47764e-07
1.53478e-05
1.48239e-07
1.53197e-05
1.48722e-07
1.52915e-05
1.49208e-07
1.52633e-05
1.49689e-07
1.52351e-05
1.50161e-07
1.52068e-05
1.50619e-07
1.51785e-05
1.51064e-07
1.51503e-05
1.51495e-07
1.5122e-05
1.51914e-07
1.50937e-05
1.52326e-07
1.50654e-05
1.52737e-07
1.50372e-05
1.53158e-07
1.5009e-05
1.53601e-07
1.49808e-05
1.54082e-07
1.49527e-05
1.54623e-07
1.49245e-05
1.55247e-07
1.48964e-05
1.55986e-07
1.48683e-05
1.56877e-07
1.48401e-05
1.57966e-07
1.48119e-05
1.59307e-07
1.47835e-05
1.60967e-07
1.4755e-05
1.63024e-07
1.47263e-05
1.65571e-07
1.46973e-05
1.6872e-07
1.46679e-05
1.72608e-07
1.46381e-05
1.77397e-07
1.46076e-05
1.83283e-07
1.45765e-05
1.90504e-07
1.45444e-05
1.99347e-07
1.45114e-05
2.10162e-07
1.44772e-05
2.23374e-07
1.44416e-05
2.39499e-07
1.44047e-05
2.59166e-07
1.43664e-05
2.83138e-07
1.43267e-05
3.12335e-07
1.42862e-05
3.47853e-07
1.42454e-05
3.90986e-07
1.42059e-05
4.43216e-07
1.41698e-05
5.06176e-07
1.41408e-05
5.81535e-07
1.41245e-05
6.70751e-07
1.41287e-05
7.7459e-07
1.41643e-05
8.92284e-07
1.42443e-05
1.02018e-06
1.43818e-05
1.14986e-06
1.45839e-05
1.26629e-06
1.34755e-06
1.48412e-05
1.74518e-05
1.52641e-07
1.74175e-05
2.86486e-07
1.73747e-05
2.95253e-07
1.73341e-05
2.35234e-07
1.72992e-05
1.80219e-07
1.72688e-05
1.53803e-07
1.72408e-05
1.48127e-07
1.72137e-05
1.51118e-07
1.71867e-05
1.55755e-07
1.71597e-05
1.5952e-07
1.71325e-05
1.62049e-07
1.71052e-05
1.63658e-07
1.70779e-05
1.64721e-07
1.70504e-05
1.65514e-07
1.70228e-05
1.66201e-07
1.69951e-05
1.66866e-07
1.69674e-05
1.67543e-07
1.69395e-05
1.68239e-07
1.69115e-05
1.68941e-07
1.68835e-05
1.69634e-07
1.68553e-05
1.70305e-07
1.6827e-05
1.70944e-07
1.67987e-05
1.71546e-07
1.67702e-05
1.72112e-07
1.67417e-05
1.72647e-07
1.6713e-05
1.7316e-07
1.66843e-05
1.73658e-07
1.66555e-05
1.7415e-07
1.66265e-05
1.74642e-07
1.65975e-05
1.75145e-07
1.65685e-05
1.75661e-07
1.65393e-05
1.76196e-07
1.651e-05
1.76751e-07
1.64807e-05
1.77323e-07
1.64513e-05
1.77909e-07
1.64218e-05
1.78501e-07
1.63923e-05
1.79091e-07
1.63627e-05
1.79671e-07
1.63331e-05
1.80235e-07
1.63034e-05
1.80778e-07
1.62738e-05
1.813e-07
1.62441e-05
1.81799e-07
1.62145e-05
1.82279e-07
1.61849e-05
1.82744e-07
1.61553e-05
1.83201e-07
1.61258e-05
1.83662e-07
1.60964e-05
1.84141e-07
1.6067e-05
1.84657e-07
1.60376e-05
1.85232e-07
1.60084e-05
1.85893e-07
1.59792e-05
1.86676e-07
1.595e-05
1.87621e-07
1.59209e-05
1.88779e-07
1.58919e-05
1.9021e-07
1.58628e-05
1.91985e-07
1.58336e-05
1.94187e-07
1.58044e-05
1.96916e-07
1.57751e-05
2.00291e-07
1.57456e-05
2.04451e-07
1.57159e-05
2.09564e-07
1.56859e-05
2.15824e-07
1.56556e-05
2.23468e-07
1.5625e-05
2.32771e-07
1.55939e-05
2.44061e-07
1.55625e-05
2.57724e-07
1.55308e-05
2.74215e-07
1.5499e-05
2.94063e-07
1.54674e-05
3.1788e-07
1.54367e-05
3.46358e-07
1.54076e-05
3.80268e-07
1.53815e-05
4.20433e-07
1.53604e-05
4.67683e-07
1.53473e-05
5.2277e-07
1.53461e-05
5.8622e-07
1.53624e-05
6.58106e-07
1.54029e-05
7.37687e-07
1.54759e-05
8.2291e-07
1.55899e-05
9.09759e-07
1.57519e-05
9.91591e-07
1.5963e-05
1.05884e-06
1.09988e-06
1.62144e-05
1.86788e-05
1.62516e-07
1.8649e-05
3.16362e-07
1.86077e-05
3.36504e-07
1.85655e-05
2.77434e-07
1.85275e-05
2.18216e-07
1.84939e-05
1.87373e-07
1.84632e-05
1.78836e-07
1.8434e-05
1.80398e-07
1.84053e-05
1.84457e-07
1.83767e-05
1.88044e-07
1.83482e-05
1.90558e-07
1.83197e-05
1.92211e-07
1.82911e-05
1.93339e-07
1.82624e-05
1.94208e-07
1.82336e-05
1.94977e-07
1.82047e-05
1.95733e-07
1.81758e-05
1.96506e-07
1.81467e-05
1.97302e-07
1.81175e-05
1.98107e-07
1.80883e-05
1.98905e-07
1.80589e-05
1.99682e-07
1.80295e-05
2.00427e-07
1.79999e-05
2.01137e-07
1.79702e-05
2.01812e-07
1.79404e-05
2.02458e-07
1.79106e-05
2.03084e-07
1.78806e-05
2.03699e-07
1.78505e-05
2.0431e-07
1.78203e-05
2.04926e-07
1.779e-05
2.05554e-07
1.77596e-05
2.06198e-07
1.77291e-05
2.06861e-07
1.76985e-05
2.07543e-07
1.76678e-05
2.08239e-07
1.76371e-05
2.08945e-07
1.76063e-05
2.09651e-07
1.75754e-05
2.10348e-07
1.75444e-05
2.11027e-07
1.75135e-05
2.1168e-07
1.74825e-05
2.12302e-07
1.74515e-05
2.1289e-07
1.74206e-05
2.13445e-07
1.73897e-05
2.13968e-07
1.73588e-05
2.14464e-07
1.7328e-05
2.14941e-07
1.72973e-05
2.15411e-07
1.72667e-05
2.15889e-07
1.72363e-05
2.16394e-07
1.72059e-05
2.16951e-07
1.71757e-05
2.1759e-07
1.71456e-05
2.18347e-07
1.71156e-05
2.19264e-07
1.70858e-05
2.20396e-07
1.70562e-05
2.21804e-07
1.70266e-05
2.2356e-07
1.69972e-05
2.2575e-07
1.69679e-05
2.28473e-07
1.69388e-05
2.31846e-07
1.69097e-05
2.36005e-07
1.68808e-05
2.41108e-07
1.6852e-05
2.47338e-07
1.68234e-05
2.54907e-07
1.6795e-05
2.6406e-07
1.6767e-05
2.75076e-07
1.67395e-05
2.88272e-07
1.6713e-05
3.04002e-07
1.66876e-05
3.22658e-07
1.66642e-05
3.44659e-07
1.66436e-05
3.70441e-07
1.66269e-05
4.00432e-07
1.66159e-05
4.35009e-07
1.66128e-05
4.74441e-07
1.66204e-05
5.188e-07
1.66425e-05
5.67842e-07
1.66836e-05
6.20844e-07
1.67487e-05
6.76406e-07
1.68432e-05
7.3223e-07
1.69719e-05
7.84918e-07
1.71375e-05
8.2988e-07
1.73387e-05
8.61558e-07
8.74202e-07
1.75683e-05
1.99912e-05
1.69125e-07
1.99656e-05
3.41961e-07
1.99262e-05
3.7582e-07
1.98831e-05
3.2058e-07
1.98425e-05
2.58805e-07
1.9806e-05
2.23866e-07
1.97727e-05
2.12146e-07
1.97413e-05
2.11818e-07
1.97108e-05
2.14918e-07
1.96808e-05
2.18075e-07
1.96509e-05
2.2042e-07
1.96211e-05
2.22029e-07
1.95913e-05
2.23174e-07
1.95614e-05
2.24092e-07
1.95315e-05
2.2493e-07
1.95014e-05
2.25767e-07
1.94713e-05
2.26631e-07
1.94411e-05
2.27524e-07
1.94108e-05
2.2843e-07
1.93804e-05
2.29334e-07
1.93498e-05
2.30219e-07
1.93192e-05
2.31076e-07
1.92885e-05
2.31901e-07
1.92576e-05
2.32695e-07
1.92266e-05
2.33465e-07
1.91956e-05
2.34219e-07
1.91644e-05
2.34966e-07
1.9133e-05
2.35714e-07
1.91016e-05
2.3647e-07
1.907e-05
2.3724e-07
1.90383e-05
2.38027e-07
1.90065e-05
2.38831e-07
1.89746e-05
2.39651e-07
1.89427e-05
2.4048e-07
1.89106e-05
2.41312e-07
1.88784e-05
2.42134e-07
1.88462e-05
2.42937e-07
1.8814e-05
2.43709e-07
1.87818e-05
2.44443e-07
1.87495e-05
2.4513e-07
1.87173e-05
2.45769e-07
1.86851e-05
2.46357e-07
1.8653e-05
2.46897e-07
1.8621e-05
2.47392e-07
1.85891e-05
2.4785e-07
1.85573e-05
2.48284e-07
1.85257e-05
2.48707e-07
1.84943e-05
2.49141e-07
1.84631e-05
2.4961e-07
1.84321e-05
2.50144e-07
1.84013e-05
2.50779e-07
1.83708e-05
2.5156e-07
1.83406e-05
2.52537e-07
1.83107e-05
2.53773e-07
1.8281e-05
2.55336e-07
1.82518e-05
2.57308e-07
1.82229e-05
2.59783e-07
1.81944e-05
2.62867e-07
1.81663e-05
2.66683e-07
1.81388e-05
2.7137e-07
1.81119e-05
2.77084e-07
1.80858e-05
2.84001e-07
1.80607e-05
2.92314e-07
1.80367e-05
3.02235e-07
1.80142e-05
3.13991e-07
1.79938e-05
3.27818e-07
1.7976e-05
3.43956e-07
1.79616e-05
3.62627e-07
1.79516e-05
3.84025e-07
1.79475e-05
4.08277e-07
1.79508e-05
4.35409e-07
1.79638e-05
4.65288e-07
1.79889e-05
4.97564e-07
1.80291e-05
5.31586e-07
1.80876e-05
5.66325e-07
1.81678e-05
6.00293e-07
1.82726e-05
6.31502e-07
1.84041e-05
6.57466e-07
1.85627e-05
6.75326e-07
1.87463e-05
6.82126e-07
6.75303e-07
1.89493e-05
2.13945e-05
1.73098e-07
2.13729e-05
3.63654e-07
2.13357e-05
4.12973e-07
2.12922e-05
3.64056e-07
2.12497e-05
3.0138e-07
2.12106e-05
2.62885e-07
2.11749e-05
2.47858e-07
2.11414e-05
2.45302e-07
2.11092e-05
2.47123e-07
2.10777e-05
2.49611e-07
2.10465e-05
2.51634e-07
2.10154e-05
2.53105e-07
2.09844e-05
2.54211e-07
2.09533e-05
2.55145e-07
2.09222e-05
2.56033e-07
2.0891e-05
2.56939e-07
2.08598e-05
2.57886e-07
2.08285e-05
2.58871e-07
2.0797e-05
2.59879e-07
2.07655e-05
2.60889e-07
2.07338e-05
2.61887e-07
2.07021e-05
2.62863e-07
2.06702e-05
2.63813e-07
2.06382e-05
2.64738e-07
2.0606e-05
2.65645e-07
2.05738e-05
2.66542e-07
2.05413e-05
2.67437e-07
2.05088e-05
2.68338e-07
2.04761e-05
2.6925e-07
2.04433e-05
2.70176e-07
2.04104e-05
2.71118e-07
2.03773e-05
2.72075e-07
2.03442e-05
2.7304e-07
2.03109e-05
2.74006e-07
2.02776e-05
2.74963e-07
2.02441e-05
2.75899e-07
2.02107e-05
2.76801e-07
2.01772e-05
2.77655e-07
2.01438e-05
2.78453e-07
2.01103e-05
2.79185e-07
2.00769e-05
2.79848e-07
2.00436e-05
2.80437e-07
2.00104e-05
2.80955e-07
1.99774e-05
2.81404e-07
1.99445e-05
2.81791e-07
1.99118e-05
2.82127e-07
1.98794e-05
2.82426e-07
1.98472e-05
2.82707e-07
1.98154e-05
2.82995e-07
1.97838e-05
2.83318e-07
1.97527e-05
2.83709e-07
1.97219e-05
2.84212e-07
1.96916e-05
2.84873e-07
1.96617e-05
2.85749e-07
1.96325e-05
2.86902e-07
1.96038e-05
2.88405e-07
1.95757e-05
2.90338e-07
1.95485e-05
2.92792e-07
1.95221e-05
2.95868e-07
1.94967e-05
2.99675e-07
1.94724e-05
3.04333e-07
1.94496e-05
3.09969e-07
1.94285e-05
3.16717e-07
1.94093e-05
3.24711e-07
1.93927e-05
3.34082e-07
1.93791e-05
3.44947e-07
1.93693e-05
3.57401e-07
1.93642e-05
3.71499e-07
1.93648e-05
3.87234e-07
1.93725e-05
4.04516e-07
1.93887e-05
4.23134e-07
1.94153e-05
4.4273e-07
1.94542e-05
4.62754e-07
1.95075e-05
4.82432e-07
1.95773e-05
5.00743e-07
1.96654e-05
5.16414e-07
1.97732e-05
5.27956e-07
1.99012e-05
5.33745e-07
2.00487e-05
5.32177e-07
2.02133e-05
5.21877e-07
5.01964e-07
2.0391e-05
2.28954e-05
1.75098e-07
2.28771e-05
3.81972e-07
2.28421e-05
4.47891e-07
2.27989e-05
4.07328e-07
2.27549e-05
3.45325e-07
2.27138e-05
3.03973e-07
2.2676e-05
2.85709e-07
2.26406e-05
2.80728e-07
2.26067e-05
2.81022e-07
2.25736e-05
2.82637e-07
2.25411e-05
2.84192e-07
2.25088e-05
2.85429e-07
2.24765e-05
2.86435e-07
2.24443e-05
2.87347e-07
2.24121e-05
2.8826e-07
2.23798e-05
2.89221e-07
2.23475e-05
2.90242e-07
2.23151e-05
2.91315e-07
2.22825e-05
2.92422e-07
2.22499e-05
2.93541e-07
2.22171e-05
2.94657e-07
2.21842e-05
2.9576e-07
2.21512e-05
2.96845e-07
2.21181e-05
2.97914e-07
2.20848e-05
2.98972e-07
2.20514e-05
3.00027e-07
2.20178e-05
3.01085e-07
2.19841e-05
3.02154e-07
2.19502e-05
3.03235e-07
2.19162e-05
3.04329e-07
2.1882e-05
3.05435e-07
2.18478e-05
3.06549e-07
2.18134e-05
3.07662e-07
2.17789e-05
3.08764e-07
2.17443e-05
3.09842e-07
2.17097e-05
3.10881e-07
2.16751e-05
3.11866e-07
2.16405e-05
3.12782e-07
2.16059e-05
3.13618e-07
2.15713e-05
3.14364e-07
2.15369e-05
3.15012e-07
2.15026e-05
3.15558e-07
2.14685e-05
3.16002e-07
2.14345e-05
3.16344e-07
2.14009e-05
3.16589e-07
2.13675e-05
3.16748e-07
2.13344e-05
3.16832e-07
2.13017e-05
3.16859e-07
2.12695e-05
3.16849e-07
2.12377e-05
3.16827e-07
2.12064e-05
3.16825e-07
2.11757e-05
3.16878e-07
2.11457e-05
3.17026e-07
2.11164e-05
3.17318e-07
2.10879e-05
3.17805e-07
2.10602e-05
3.18545e-07
2.10336e-05
3.19601e-07
2.10082e-05
3.21041e-07
2.0984e-05
3.22938e-07
2.09614e-05
3.25367e-07
2.09405e-05
3.28404e-07
2.09216e-05
3.32125e-07
2.09052e-05
3.36599e-07
2.08915e-05
3.41885e-07
2.08812e-05
3.48025e-07
2.08748e-05
3.55032e-07
2.08732e-05
3.62884e-07
2.08771e-05
3.71507e-07
2.08876e-05
3.80761e-07
2.09058e-05
3.90421e-07
2.09329e-05
4.00159e-07
2.09703e-05
4.09527e-07
2.10195e-05
4.17944e-07
2.10815e-05
4.24687e-07
2.11578e-05
4.28901e-07
2.1249e-05
4.29633e-07
2.13556e-05
4.25883e-07
2.14771e-05
4.16709e-07
2.16125e-05
4.0134e-07
2.17596e-05
3.79323e-07
3.50643e-07
2.19155e-05
2.45006e-05
1.7573e-07
2.44851e-05
3.97504e-07
2.44523e-05
4.80626e-07
2.44097e-05
4.49979e-07
2.43649e-05
3.90073e-07
2.43222e-05
3.4666e-07
2.42826e-05
3.25398e-07
2.42454e-05
3.1793e-07
2.42098e-05
3.16537e-07
2.41754e-05
3.17116e-07
2.41415e-05
3.18073e-07
2.41079e-05
3.18983e-07
2.40745e-05
3.19826e-07
2.40412e-05
3.20673e-07
2.40079e-05
3.21583e-07
2.39745e-05
3.22581e-07
2.39411e-05
3.23665e-07
2.39076e-05
3.24822e-07
2.3874e-05
3.26028e-07
2.38403e-05
3.27259e-07
2.38065e-05
3.28499e-07
2.37725e-05
3.29737e-07
2.37384e-05
3.30969e-07
2.37042e-05
3.32195e-07
2.36698e-05
3.33418e-07
2.36352e-05
3.34644e-07
2.36005e-05
3.35879e-07
2.35657e-05
3.37126e-07
2.35306e-05
3.38385e-07
2.34954e-05
3.39655e-07
2.34601e-05
3.40929e-07
2.34247e-05
3.422e-07
2.33891e-05
3.43457e-07
2.33535e-05
3.44685e-07
2.33178e-05
3.45869e-07
2.32821e-05
3.46992e-07
2.32464e-05
3.48035e-07
2.32107e-05
3.48983e-07
2.31751e-05
3.49819e-07
2.31396e-05
3.50533e-07
2.31042e-05
3.51115e-07
2.30691e-05
3.51558e-07
2.30342e-05
3.51858e-07
2.29996e-05
3.52016e-07
2.29653e-05
3.52032e-07
2.29314e-05
3.51915e-07
2.2898e-05
3.51672e-07
2.28651e-05
3.51318e-07
2.28327e-05
3.50868e-07
2.2801e-05
3.50343e-07
2.277e-05
3.49767e-07
2.27398e-05
3.49168e-07
2.27105e-05
3.48576e-07
2.26821e-05
3.48027e-07
2.26548e-05
3.47558e-07
2.26288e-05
3.47209e-07
2.26042e-05
3.47022e-07
2.25811e-05
3.4704e-07
2.25598e-05
3.47302e-07
2.25405e-05
3.47849e-07
2.25235e-05
3.48713e-07
2.25091e-05
3.49919e-07
2.24978e-05
3.51478e-07
2.249e-05
3.53384e-07
2.24862e-05
3.55604e-07
2.24871e-05
3.58075e-07
2.24933e-05
3.60693e-07
2.25056e-05
3.63305e-07
2.25248e-05
3.65698e-07
2.25519e-05
3.67589e-07
2.25878e-05
3.68623e-07
2.26334e-05
3.68361e-07
2.26896e-05
3.66286e-07
2.2757e-05
3.61811e-07
2.28362e-05
3.54299e-07
2.29273e-05
3.43105e-07
2.30303e-05
3.27636e-07
2.31443e-05
3.07428e-07
2.32681e-05
2.82237e-07
2.34001e-05
2.52129e-07
2.17526e-07
2.3538e-05
2.62176e-05
1.75502e-07
2.62043e-05
4.10836e-07
2.61736e-05
5.11329e-07
2.61319e-05
4.9172e-07
2.60868e-05
4.35145e-07
2.6043e-05
3.90504e-07
2.60018e-05
3.66609e-07
2.5963e-05
3.56717e-07
2.59259e-05
3.5356e-07
2.58901e-05
3.52989e-07
2.58549e-05
3.5324e-07
2.58202e-05
3.53738e-07
2.57856e-05
3.54355e-07
2.57512e-05
3.55094e-07
2.57168e-05
3.55971e-07
2.56824e-05
3.56986e-07
2.5648e-05
3.58122e-07
2.56134e-05
3.59355e-07
2.55788e-05
3.60659e-07
2.55441e-05
3.62005e-07
2.55092e-05
3.63376e-07
2.54742e-05
3.64759e-07
2.54391e-05
3.66149e-07
2.54038e-05
3.67543e-07
2.53683e-05
3.68943e-07
2.53326e-05
3.70352e-07
2.52968e-05
3.71774e-07
2.52609e-05
3.73207e-07
2.52247e-05
3.74649e-07
2.51884e-05
3.76094e-07
2.5152e-05
3.77533e-07
2.51155e-05
3.78954e-07
2.50788e-05
3.80341e-07
2.50421e-05
3.81677e-07
2.50054e-05
3.82943e-07
2.49687e-05
3.84119e-07
2.4932e-05
3.85184e-07
2.48954e-05
3.86118e-07
2.4859e-05
3.86904e-07
2.48227e-05
3.87526e-07
2.47866e-05
3.87974e-07
2.47508e-05
3.88237e-07
2.47154e-05
3.88309e-07
2.46803e-05
3.88185e-07
2.46457e-05
3.87865e-07
2.46116e-05
3.87351e-07
2.45781e-05
3.86647e-07
2.45452e-05
3.85763e-07
2.45131e-05
3.84707e-07
2.44819e-05
3.83493e-07
2.44515e-05
3.82137e-07
2.44222e-05
3.80655e-07
2.4394e-05
3.79068e-07
2.43671e-05
3.77395e-07
2.43416e-05
3.75658e-07
2.43177e-05
3.73876e-07
2.42955e-05
3.72069e-07
2.42753e-05
3.70251e-07
2.42574e-05
3.68435e-07
2.42419e-05
3.66623e-07
2.42293e-05
3.64811e-07
2.42198e-05
3.62978e-07
2.42139e-05
3.61089e-07
2.4212e-05
3.59089e-07
2.42147e-05
3.56894e-07
2.42224e-05
3.54393e-07
2.42358e-05
3.51437e-07
2.42555e-05
3.47837e-07
2.42822e-05
3.4336e-07
2.43165e-05
3.37725e-07
2.43591e-05
3.30603e-07
2.44104e-05
3.21623e-07
2.4471e-05
3.10375e-07
2.45411e-05
2.96428e-07
2.46208e-05
2.79355e-07
2.471e-05
2.58768e-07
2.48081e-05
2.34367e-07
2.49145e-05
2.06008e-07
2.50279e-05
1.73765e-07
2.5147e-05
1.37987e-07
9.93058e-08
2.52702e-05
2.80545e-05
1.74812e-07
2.80428e-05
4.22514e-07
2.8014e-05
5.40211e-07
2.79733e-05
5.32381e-07
2.79283e-05
4.80158e-07
2.78837e-05
4.35103e-07
2.78413e-05
4.09025e-07
2.78011e-05
3.96873e-07
2.77627e-05
3.91956e-07
2.77255e-05
3.9017e-07
2.76891e-05
3.89637e-07
2.76532e-05
3.89651e-07
2.76176e-05
3.89983e-07
2.75821e-05
3.9057e-07
2.75467e-05
3.91383e-07
2.75113e-05
3.92394e-07
2.74759e-05
3.93569e-07
2.74404e-05
3.94872e-07
2.74048e-05
3.96271e-07
2.7369e-05
3.97735e-07
2.73332e-05
3.99243e-07
2.72972e-05
4.00779e-07
2.7261e-05
4.02335e-07
2.72247e-05
4.03908e-07
2.71882e-05
4.05494e-07
2.71515e-05
4.07094e-07
2.71147e-05
4.08707e-07
2.70777e-05
4.10328e-07
2.70405e-05
4.11951e-07
2.70032e-05
4.13565e-07
2.69657e-05
4.15157e-07
2.69282e-05
4.1671e-07
2.68906e-05
4.18204e-07
2.6853e-05
4.19619e-07
2.68154e-05
4.20931e-07
2.67778e-05
4.22117e-07
2.67403e-05
4.23152e-07
2.6703e-05
4.24014e-07
2.66658e-05
4.24682e-07
2.6629e-05
4.25139e-07
2.65924e-05
4.25368e-07
2.65562e-05
4.25357e-07
2.65204e-05
4.25095e-07
2.64852e-05
4.24575e-07
2.64505e-05
4.23789e-07
2.64165e-05
4.22737e-07
2.63833e-05
4.21416e-07
2.63509e-05
4.19829e-07
2.63194e-05
4.17979e-07
2.6289e-05
4.15868e-07
2.62597e-05
4.13503e-07
2.62317e-05
4.10889e-07
2.62051e-05
4.08033e-07
2.61801e-05
4.0494e-07
2.61568e-05
4.01612e-07
2.61355e-05
3.98051e-07
2.61163e-05
3.94253e-07
2.60995e-05
3.9021e-07
2.60853e-05
3.85906e-07
2.6074e-05
3.81315e-07
2.6066e-05
3.764e-07
2.60616e-05
3.71111e-07
2.60611e-05
3.6538e-07
2.60651e-05
3.59119e-07
2.60738e-05
3.52219e-07
2.60879e-05
3.44546e-07
2.61077e-05
3.35939e-07
2.61337e-05
3.26208e-07
2.61664e-05
3.15136e-07
2.62063e-05
3.02478e-07
2.62536e-05
2.87966e-07
2.63086e-05
2.71316e-07
2.63716e-05
2.52233e-07
2.64425e-05
2.30434e-07
2.65211e-05
2.05662e-07
2.66072e-05
1.77721e-07
2.67e-05
1.46516e-07
2.6799e-05
1.12099e-07
2.69032e-05
7.47313e-08
2.70113e-05
3.49272e-08
-6.56791e-09
2.71224e-05
3.00197e-05
1.73962e-07
3.00092e-05
4.33022e-07
2.99819e-05
5.67524e-07
2.99424e-05
5.7189e-07
2.98977e-05
5.2482e-07
2.98527e-05
4.80104e-07
2.98094e-05
4.52339e-07
2.97681e-05
4.38167e-07
2.97285e-05
4.31561e-07
2.96901e-05
4.28546e-07
2.96526e-05
4.27181e-07
2.96156e-05
4.26656e-07
2.95789e-05
4.26655e-07
2.95424e-05
4.27049e-07
2.95061e-05
4.27767e-07
2.94697e-05
4.28751e-07
2.94333e-05
4.2995e-07
2.93969e-05
4.31316e-07
2.93604e-05
4.32807e-07
2.93237e-05
4.34391e-07
2.92869e-05
4.3604e-07
2.925e-05
4.37735e-07
2.92129e-05
4.39465e-07
2.91756e-05
4.41221e-07
2.91382e-05
4.42998e-07
2.91006e-05
4.44792e-07
2.90628e-05
4.46594e-07
2.90248e-05
4.48398e-07
2.89867e-05
4.50192e-07
2.89485e-05
4.51959e-07
2.89101e-05
4.53682e-07
2.88717e-05
4.55338e-07
2.88333e-05
4.56904e-07
2.87949e-05
4.58355e-07
2.87565e-05
4.59663e-07
2.87183e-05
4.60801e-07
2.86802e-05
4.61741e-07
2.86423e-05
4.62457e-07
2.86048e-05
4.62925e-07
2.85675e-05
4.63124e-07
2.85307e-05
4.63034e-07
2.84944e-05
4.62637e-07
2.84586e-05
4.61919e-07
2.84235e-05
4.60866e-07
2.83891e-05
4.59468e-07
2.83556e-05
4.57717e-07
2.8323e-05
4.55603e-07
2.82914e-05
4.53122e-07
2.82609e-05
4.50267e-07
2.82318e-05
4.47033e-07
2.8204e-05
4.43414e-07
2.81778e-05
4.39406e-07
2.81533e-05
4.35e-07
2.81306e-05
4.30188e-07
2.811e-05
4.24956e-07
2.80917e-05
4.19288e-07
2.80759e-05
4.13162e-07
2.80628e-05
4.06548e-07
2.80526e-05
3.99409e-07
2.80458e-05
3.917e-07
2.80425e-05
3.83361e-07
2.80431e-05
3.74322e-07
2.80479e-05
3.645e-07
2.80573e-05
3.53795e-07
2.80716e-05
3.42089e-07
2.80912e-05
3.29251e-07
2.81164e-05
3.15129e-07
2.81476e-05
2.99558e-07
2.8185e-05
2.82357e-07
2.82289e-05
2.63334e-07
2.82794e-05
2.42293e-07
2.83365e-05
2.19036e-07
2.84003e-05
1.93375e-07
2.84707e-05
1.65144e-07
2.85472e-05
1.34217e-07
2.86295e-05
1.00532e-07
2.87171e-05
6.41261e-08
2.88092e-05
2.51929e-08
2.8905e-05
-1.58949e-08
2.90038e-05
-5.85454e-08
-1.01978e-07
2.91045e-05
3.21223e-05
1.73178e-07
3.21126e-05
4.42776e-07
3.20866e-05
5.93531e-07
3.20482e-05
6.10243e-07
3.20041e-05
5.68915e-07
3.1959e-05
5.25203e-07
3.19151e-05
4.96254e-07
3.18729e-05
4.80352e-07
3.18323e-05
4.72187e-07