/*--------------------------------*- C++ -*----------------------------------*\
| =========                 |                                                 |
| \\      /  F ield         | OpenFOAM: The Open Source CFD Toolbox           |
|  \\    /   O peration     | Version:  4.1                                   |
|   \\  /    A nd           | Web:      www.OpenFOAM.org                      |
|    \\/     M anipulation  |                                                 |
\*---------------------------------------------------------------------------*/
FoamFile
{
    version     2.0;
    format      ascii;
    class       volVectorField;
    location    "0.2";
    object      U;
}
// * * * * * * * * * * * * * * * * * * * * * * * * * * * * * * * * * * * * * //

dimensions      [0 1 -1 0 0 0 0];

internalField   nonuniform List<vector> 
12013
(
(0.0999326 2.05923e-05 0)
(0.0996232 3.41916e-05 0)
(0.0992395 3.21667e-05 0)
(0.0989601 2.29134e-05 0)
(0.0987789 1.6132e-05 0)
(0.0986419 1.38659e-05 0)
(0.0985108 1.43347e-05 0)
(0.0983709 1.57027e-05 0)
(0.0982203 1.70512e-05 0)
(0.0980618 1.81257e-05 0)
(0.0978984 1.89478e-05 0)
(0.0977321 1.96047e-05 0)
(0.0975641 2.01719e-05 0)
(0.097395 2.07e-05 0)
(0.0972251 2.12188e-05 0)
(0.0970544 2.17446e-05 0)
(0.096883 2.22841e-05 0)
(0.0967108 2.28391e-05 0)
(0.0965378 2.3408e-05 0)
(0.0963642 2.39888e-05 0)
(0.0961897 2.45783e-05 0)
(0.0960146 2.51751e-05 0)
(0.0958389 2.5777e-05 0)
(0.0956626 2.63846e-05 0)
(0.0954859 2.6998e-05 0)
(0.0953087 2.7619e-05 0)
(0.0951312 2.82479e-05 0)
(0.0949533 2.8887e-05 0)
(0.0947752 2.9539e-05 0)
(0.0945967 3.02058e-05 0)
(0.0944181 3.08896e-05 0)
(0.0942392 3.15925e-05 0)
(0.09406 3.23165e-05 0)
(0.0938806 3.30622e-05 0)
(0.0937009 3.38307e-05 0)
(0.093521 3.46205e-05 0)
(0.0933409 3.5431e-05 0)
(0.0931605 3.62604e-05 0)
(0.0929801 3.71088e-05 0)
(0.0927995 3.79755e-05 0)
(0.0926188 3.88604e-05 0)
(0.0924381 3.97643e-05 0)
(0.0922575 4.06875e-05 0)
(0.0920769 4.16323e-05 0)
(0.0918965 4.26015e-05 0)
(0.0917162 4.35979e-05 0)
(0.091536 4.46275e-05 0)
(0.0913559 4.5697e-05 0)
(0.0911759 4.68145e-05 0)
(0.0909959 4.7991e-05 0)
(0.0908159 4.92404e-05 0)
(0.0906355 5.05809e-05 0)
(0.0904546 5.20349e-05 0)
(0.0902729 5.36302e-05 0)
(0.09009 5.5402e-05 0)
(0.0899053 5.73948e-05 0)
(0.0897182 5.96636e-05 0)
(0.089528 6.2278e-05 0)
(0.0893335 6.53261e-05 0)
(0.0891335 6.89201e-05 0)
(0.0889264 7.32026e-05 0)
(0.0887103 7.83578e-05 0)
(0.0884825 8.4625e-05 0)
(0.0882401 9.23179e-05 0)
(0.0879789 0.000101853 0)
(0.087694 0.000113787 0)
(0.0873787 0.000128884 0)
(0.0870245 0.000148194 0)
(0.0866203 0.000173195 0)
(0.0861508 0.000206007 0)
(0.0855958 0.000249722 0)
(0.0849269 0.000308953 0)
(0.0841044 0.00039072 0)
(0.083071 0.000505926 0)
(0.081743 0.000671854 0)
(0.079996 0.000916386 0)
(0.0776414 0.00128529 0)
(0.0743755 0.00185707 0)
(0.0697215 0.00278878 0)
(0.0631036 0.00451393 0)
(0.0555657 0.0089692 0)
(0.0999389 6.25233e-05 0)
(0.0996367 0.000104386 0)
(0.0992584 9.85298e-05 0)
(0.0989794 7.04234e-05 0)
(0.098796 4.97245e-05 0)
(0.0986565 4.27531e-05 0)
(0.0985238 4.41269e-05 0)
(0.0983829 4.82618e-05 0)
(0.0982321 5.23546e-05 0)
(0.0980737 5.56241e-05 0)
(0.0979106 5.81308e-05 0)
(0.0977447 6.01373e-05 0)
(0.0975772 6.18726e-05 0)
(0.0974086 6.34906e-05 0)
(0.0972392 6.50813e-05 0)
(0.0970691 6.66928e-05 0)
(0.0968982 6.83467e-05 0)
(0.0967266 7.0048e-05 0)
(0.0965542 7.17924e-05 0)
(0.0963811 7.35725e-05 0)
(0.0962073 7.53803e-05 0)
(0.0960327 7.72095e-05 0)
(0.0958576 7.9056e-05 0)
(0.0956819 8.0919e-05 0)
(0.0955058 8.28008e-05 0)
(0.0953292 8.4705e-05 0)
(0.0951522 8.66354e-05 0)
(0.094975 8.85978e-05 0)
(0.0947974 9.05986e-05 0)
(0.0946195 9.26449e-05 0)
(0.0944414 9.47445e-05 0)
(0.094263 9.6903e-05 0)
(0.0940843 9.91254e-05 0)
(0.0939054 0.000101415 0)
(0.0937262 0.000103773 0)
(0.0935468 0.000106198 0)
(0.0933671 0.000108686 0)
(0.0931872 0.000111234 0)
(0.0930072 0.000113838 0)
(0.092827 0.000116498 0)
(0.0926468 0.000119216 0)
(0.0924666 0.00012199 0)
(0.0922863 0.000124825 0)
(0.0921061 0.000127725 0)
(0.0919261 0.0001307 0)
(0.0917461 0.000133761 0)
(0.0915663 0.000136922 0)
(0.0913866 0.000140205 0)
(0.091207 0.000143635 0)
(0.0910274 0.000147246 0)
(0.0908476 0.000151082 0)
(0.0906676 0.000155195 0)
(0.0904871 0.000159655 0)
(0.0903058 0.000164546 0)
(0.0901233 0.000169976 0)
(0.0899391 0.000176078 0)
(0.0897526 0.000183021 0)
(0.089563 0.000191017 0)
(0.0893693 0.000200331 0)
(0.0891702 0.000211301 0)
(0.0889644 0.000224359 0)
(0.0887498 0.00024006 0)
(0.088524 0.000259121 0)
(0.0882843 0.000282481 0)
(0.0880267 0.000311383 0)
(0.0877466 0.000347486 0)
(0.0874381 0.00039304 0)
(0.0870933 0.000451134 0)
(0.0867023 0.000526084 0)
(0.0862519 0.000624011 0)
(0.0857247 0.000753763 0)
(0.0850975 0.000928348 0)
(0.0843384 0.00116724 0)
(0.0834043 0.00150002 0)
(0.0822357 0.00197224 0)
(0.0807518 0.00265439 0)
(0.0788448 0.00365474 0)
(0.0763691 0.00513646 0)
(0.07316 0.00733899 0)
(0.0692629 0.0105407 0)
(0.0659773 0.0146184 0)
(0.0999466 0.000104592 0)
(0.0996636 0.000177032 0)
(0.0992993 0.000168482 0)
(0.0990215 0.000121606 0)
(0.098833 8.65555e-05 0)
(0.0986878 7.44622e-05 0)
(0.0985511 7.65058e-05 0)
(0.0984083 8.33218e-05 0)
(0.0982569 9.01583e-05 0)
(0.0980989 9.56605e-05 0)
(0.0979365 9.99053e-05 0)
(0.0977716 0.000103321 0)
(0.0976051 0.000106287 0)
(0.0974377 0.000109059 0)
(0.0972694 0.000111787 0)
(0.0971004 0.000114552 0)
(0.0969307 0.00011739 0)
(0.0967603 0.000120309 0)
(0.0965891 0.000123302 0)
(0.0964172 0.000126357 0)
(0.0962446 0.000129459 0)
(0.0960714 0.000132599 0)
(0.0958975 0.00013577 0)
(0.0957231 0.000138971 0)
(0.0955482 0.000142205 0)
(0.0953729 0.000145478 0)
(0.0951972 0.000148798 0)
(0.0950211 0.000152175 0)
(0.0948447 0.000155619 0)
(0.094668 0.000159142 0)
(0.0944911 0.000162758 0)
(0.0943138 0.000166475 0)
(0.0941362 0.000170301 0)
(0.0939584 0.000174244 0)
(0.0937803 0.000178305 0)
(0.0936019 0.000182479 0)
(0.0934233 0.000186762 0)
(0.0932444 0.000191146 0)
(0.0930654 0.000195629 0)
(0.0928862 0.000200207 0)
(0.0927069 0.000204883 0)
(0.0925276 0.000209657 0)
(0.0923484 0.000214534 0)
(0.0921692 0.000219525 0)
(0.0919901 0.000224643 0)
(0.0918111 0.000229908 0)
(0.0916322 0.000235346 0)
(0.0914535 0.000240991 0)
(0.0912749 0.000246889 0)
(0.0910963 0.000253096 0)
(0.0909175 0.000259685 0)
(0.0907386 0.000266746 0)
(0.0905592 0.000274395 0)
(0.090379 0.000282779 0)
(0.0901978 0.000292074 0)
(0.090015 0.000302509 0)
(0.08983 0.000314364 0)
(0.0896421 0.000327993 0)
(0.0894503 0.00034384 0)
(0.0892537 0.000362468 0)
(0.0890507 0.000384591 0)
(0.0888396 0.000411124 0)
(0.0886182 0.000443246 0)
(0.0883841 0.000482488 0)
(0.0881338 0.00053086 0)
(0.0878633 0.000591025 0)
(0.0875675 0.000666554 0)
(0.0872401 0.000762291 0)
(0.0868731 0.000884898 0)
(0.0864563 0.00104365 0)
(0.0859772 0.00125165 0)
(0.0854198 0.00152763 0)
(0.0847644 0.00189868 0)
(0.0839872 0.00240422 0)
(0.0830609 0.00310158 0)
(0.0819576 0.00407287 0)
(0.0806577 0.00543097 0)
(0.0791654 0.0073179 0)
(0.0775529 0.00987997 0)
(0.0760919 0.0131438 0)
(0.0754937 0.016521 0)
(0.099956 0.00014475 0)
(0.0997026 0.000249931 0)
(0.0993607 0.000241041 0)
(0.0990857 0.000176923 0)
(0.0988898 0.000127644 0)
(0.098736 0.000109914 0)
(0.0985934 0.000112091 0)
(0.0984477 0.000121238 0)
(0.0982956 0.000130646 0)
(0.098138 0.000138324 0)
(0.0979769 0.000144313 0)
(0.0978135 0.000149176 0)
(0.0976487 0.000153423 0)
(0.0974829 0.000157408 0)
(0.0973164 0.000161336 0)
(0.0971493 0.00016532 0)
(0.0969814 0.000169408 0)
(0.0968129 0.000173614 0)
(0.0966436 0.000177926 0)
(0.0964736 0.000182328 0)
(0.096303 0.000186798 0)
(0.0961317 0.000191326 0)
(0.0959598 0.0001959 0)
(0.0957874 0.00020052 0)
(0.0956144 0.000205191 0)
(0.0954411 0.000209923 0)
(0.0952673 0.000214726 0)
(0.0950932 0.000219612 0)
(0.0949187 0.000224599 0)
(0.0947439 0.000229703 0)
(0.0945687 0.000234941 0)
(0.0943932 0.000240327 0)
(0.0942174 0.000245871 0)
(0.0940413 0.000251582 0)
(0.0938648 0.000257462 0)
(0.0936881 0.000263505 0)
(0.0935111 0.000269703 0)
(0.0933339 0.000276046 0)
(0.0931564 0.000282531 0)
(0.0929789 0.000289152 0)
(0.0928012 0.000295911 0)
(0.0926236 0.000302812 0)
(0.0924459 0.000309861 0)
(0.0922684 0.000317073 0)
(0.0920909 0.000324465 0)
(0.0919136 0.000332067 0)
(0.0917365 0.000339915 0)
(0.0915595 0.000348061 0)
(0.0913826 0.000356566 0)
(0.0912059 0.000365509 0)
(0.0910291 0.000374994 0)
(0.0908521 0.000385149 0)
(0.0906749 0.000396138 0)
(0.090497 0.000408162 0)
(0.0903181 0.000421474 0)
(0.090138 0.000436389 0)
(0.0899559 0.000453299 0)
(0.0897713 0.000472694 0)
(0.0895834 0.000495186 0)
(0.0893911 0.000521548 0)
(0.0891933 0.000552758 0)
(0.0889885 0.000590055 0)
(0.0887748 0.000635026 0)
(0.0885501 0.000689716 0)
(0.0883119 0.000756774 0)
(0.0880568 0.000839671 0)
(0.0877811 0.000942988 0)
(0.0874803 0.00107282 0)
(0.0871489 0.00123739 0)
(0.0867808 0.0014478 0)
(0.0863689 0.00171927 0)
(0.0859059 0.00207273 0)
(0.0853847 0.002537 0)
(0.0848008 0.00315161 0)
(0.0841552 0.00396978 0)
(0.0834616 0.0050603 0)
(0.0827576 0.00650427 0)
(0.0821218 0.00837811 0)
(0.0816981 0.0107066 0)
(0.0817215 0.0133463 0)
(0.0824783 0.0157288 0)
(0.0999665 0.00018117 0)
(0.0997502 0.000320575 0)
(0.0994377 0.000315016 0)
(0.0991678 0.000236674 0)
(0.0989636 0.000173953 0)
(0.0987994 0.000150037 0)
(0.0986496 0.000151523 0)
(0.0985004 0.000162373 0)
(0.0983474 0.000173994 0)
(0.0981907 0.000183685 0)
(0.0980311 0.000191368 0)
(0.0978698 0.000197685 0)
(0.0977072 0.000203251 0)
(0.0975439 0.0002085 0)
(0.0973798 0.000213687 0)
(0.0972151 0.000218951 0)
(0.0970497 0.000224354 0)
(0.0968837 0.00022991 0)
(0.096717 0.000235607 0)
(0.0965496 0.000241423 0)
(0.0963816 0.000247333 0)
(0.096213 0.000253322 0)
(0.0960437 0.000259377 0)
(0.095874 0.000265498 0)
(0.0957037 0.000271692 0)
(0.095533 0.000277973 0)
(0.0953619 0.000284354 0)
(0.0951903 0.000290851 0)
(0.0950184 0.000297486 0)
(0.0948461 0.000304281 0)
(0.0946733 0.000311255 0)
(0.0945003 0.000318426 0)
(0.0943268 0.000325805 0)
(0.094153 0.000333405 0)
(0.0939789 0.000341224 0)
(0.0938044 0.000349257 0)
(0.0936297 0.000357492 0)
(0.0934547 0.000365916 0)
(0.0932795 0.000374524 0)
(0.0931042 0.000383309 0)
(0.0929288 0.000392273 0)
(0.0927534 0.000401419 0)
(0.0925781 0.000410758 0)
(0.0924029 0.000420306 0)
(0.0922278 0.000430089 0)
(0.0920529 0.000440141 0)
(0.0918783 0.000450513 0)
(0.0917039 0.000461267 0)
(0.0915297 0.000472484 0)
(0.0913557 0.000484266 0)
(0.0911819 0.000496745 0)
(0.091008 0.000510085 0)
(0.090834 0.000524494 0)
(0.0906596 0.000540229 0)
(0.0904846 0.000557609 0)
(0.0903086 0.000577032 0)
(0.0901312 0.00059899 0)
(0.0899518 0.000624094 0)
(0.0897697 0.000653107 0)
(0.0895843 0.000686983 0)
(0.0893944 0.000726915 0)
(0.0891991 0.00077441 0)
(0.0889968 0.000831372 0)
(0.0887861 0.000900223 0)
(0.0885651 0.000984061 0)
(0.0883317 0.00108687 0)
(0.0880837 0.00121379 0)
(0.0878185 0.00137154 0)
(0.0875338 0.00156884 0)
(0.0872271 0.00181715 0)
(0.0868972 0.0021315 0)
(0.0865445 0.00253151 0)
(0.0861726 0.00304267 0)
(0.0857911 0.00369732 0)
(0.0854198 0.00453501 0)
(0.0850943 0.00560034 0)
(0.0848738 0.00693501 0)
(0.0848497 0.00855832 0)
(0.0851484 0.0104275 0)
(0.0859154 0.0123692 0)
(0.0872388 0.0139927 0)
(0.099977 0.000212329 0)
(0.0998011 0.000386657 0)
(0.0995227 0.000389114 0)
(0.099261 0.000300834 0)
(0.0990495 0.000226147 0)
(0.0988749 0.000195574 0)
(0.0987174 0.000195353 0)
(0.0985644 0.000207054 0)
(0.0984107 0.00022036 0)
(0.0982549 0.000231793 0)
(0.0980974 0.000241059 0)
(0.0979386 0.000248807 0)
(0.0977789 0.000255713 0)
(0.0976184 0.000262268 0)
(0.0974573 0.000268765 0)
(0.0972957 0.000275366 0)
(0.0971334 0.000282141 0)
(0.0969705 0.000289109 0)
(0.096807 0.000296252 0)
(0.0966428 0.000303546 0)
(0.096478 0.000310963 0)
(0.0963127 0.000318484 0)
(0.0961467 0.000326097 0)
(0.0959803 0.000333801 0)
(0.0958133 0.000341607 0)
(0.0956459 0.00034953 0)
(0.095478 0.000357589 0)
(0.0953096 0.000365803 0)
(0.0951408 0.000374199 0)
(0.0949715 0.0003828 0)
(0.0948019 0.00039163 0)
(0.0946318 0.000400708 0)
(0.0944612 0.000410047 0)
(0.0942903 0.000419658 0)
(0.094119 0.000429541 0)
(0.0939474 0.000439685 0)
(0.0937755 0.000450076 0)
(0.0936033 0.0004607 0)
(0.093431 0.000471547 0)
(0.0932585 0.00048261 0)
(0.093086 0.000493888 0)
(0.0929136 0.000505387 0)
(0.0927412 0.000517118 0)
(0.092569 0.0005291 0)
(0.0923971 0.000541364 0)
(0.0922254 0.000553953 0)
(0.092054 0.000566926 0)
(0.0918831 0.000580358 0)
(0.0917125 0.000594346 0)
(0.0915422 0.000609013 0)
(0.0913723 0.000624515 0)
(0.0912026 0.00064105 0)
(0.0910331 0.000658865 0)
(0.0908635 0.000678264 0)
(0.0906938 0.000699625 0)
(0.0905235 0.000723415 0)
(0.0903525 0.000750207 0)
(0.0901803 0.000780712 0)
(0.0900064 0.000815806 0)
(0.0898303 0.000856578 0)
(0.0896513 0.000904378 0)
(0.0894687 0.000960883 0)
(0.0892817 0.00102819 0)
(0.0890893 0.00110892 0)
(0.0888907 0.00120637 0)
(0.088685 0.00132467 0)
(0.0884715 0.00146903 0)
(0.0882496 0.00164602 0)
(0.0880197 0.00186392 0)
(0.0877832 0.00213308 0)
(0.0875431 0.00246641 0)
(0.0873057 0.00287975 0)
(0.0870815 0.0033921 0)
(0.0868882 0.00402532 0)
(0.0867529 0.00480271 0)
(0.0867162 0.0057453 0)
(0.0868352 0.00686398 0)
(0.0871844 0.00814484 0)
(0.0878487 0.00952594 0)
(0.0889015 0.0108679 0)
(0.0903521 0.0119357 0)
(0.0999865 0.000237335 0)
(0.0998501 0.000446488 0)
(0.0996078 0.000462092 0)
(0.0993575 0.000368981 0)
(0.0991413 0.000284431 0)
(0.0989578 0.000246956 0)
(0.0987933 0.000243973 0)
(0.0986369 0.000255548 0)
(0.0984826 0.00026989 0)
(0.0983282 0.000282709 0)
(0.0981731 0.000293392 0)
(0.0980172 0.000302514 0)
(0.0978607 0.000310761 0)
(0.0977036 0.000318652 0)
(0.097546 0.000326504 0)
(0.0973879 0.000334492 0)
(0.0972292 0.000342694 0)
(0.0970699 0.000351128 0)
(0.0969101 0.000359775 0)
(0.0967497 0.000368607 0)
(0.0965887 0.000377595 0)
(0.0964271 0.000386719 0)
(0.096265 0.000395965 0)
(0.0961023 0.000405335 0)
(0.0959391 0.000414841 0)
(0.0957755 0.000424505 0)
(0.0956113 0.000434346 0)
(0.0954466 0.000444388 0)
(0.0952814 0.00045466 0)
(0.0951157 0.000465189 0)
(0.0949496 0.000475999 0)
(0.0947829 0.00048711 0)
(0.0946158 0.000498536 0)
(0.0944483 0.000510283 0)
(0.0942804 0.000522351 0)
(0.0941121 0.000534725 0)
(0.0939435 0.000547389 0)
(0.0937747 0.000560324 0)
(0.0936058 0.000573517 0)
(0.0934367 0.000586959 0)
(0.0932677 0.000600648 0)
(0.0930987 0.000614588 0)
(0.09293 0.000628792 0)
(0.0927614 0.00064328 0)
(0.0925933 0.000658087 0)
(0.0924255 0.00067326 0)
(0.0922582 0.000688868 0)
(0.0920915 0.000704994 0)
(0.0919253 0.00072175 0)
(0.0917597 0.000739274 0)
(0.0915948 0.000757744 0)
(0.0914304 0.000777383 0)
(0.0912665 0.000798467 0)
(0.0911031 0.00082134 0)
(0.09094 0.000846421 0)
(0.0907771 0.000874226 0)
(0.0906142 0.000905387 0)
(0.0904511 0.000940675 0)
(0.0902876 0.000981037 0)
(0.0901233 0.00102763 0)
(0.089958 0.00108188 0)
(0.0897914 0.00114552 0)
(0.0896231 0.00122069 0)
(0.0894531 0.00131001 0)
(0.0892814 0.00141666 0)
(0.0891081 0.00154459 0)
(0.0889341 0.00169856 0)
(0.0887607 0.00188436 0)
(0.0885903 0.00210897 0)
(0.0884269 0.00238064 0)
(0.0882768 0.002709 0)
(0.0881493 0.00310491 0)
(0.0880581 0.00358002 0)
(0.0880227 0.00414585 0)
(0.0880697 0.00481175 0)
(0.0882345 0.00558157 0)
(0.0885609 0.00644793 0)
(0.0890989 0.00738399 0)
(0.0898962 0.00833298 0)
(0.0909819 0.00919947 0)
(0.0923394 0.00985201 0)
(0.0999943 0.000256079 0)
(0.0998931 0.000499198 0)
(0.099686 0.000532886 0)
(0.0994502 0.000440322 0)
(0.0992332 0.000348494 0)
(0.0990436 0.000304221 0)
(0.0988738 0.000297559 0)
(0.0987148 0.000308031 0)
(0.0985604 0.000322709 0)
(0.0984076 0.0003365 0)
(0.0982552 0.000348391 0)
(0.0981025 0.0003588 0)
(0.0979496 0.000368368 0)
(0.0977963 0.000377612 0)
(0.0976425 0.000386854 0)
(0.0974883 0.000396273 0)
(0.0973336 0.000405949 0)
(0.0971784 0.0004159 0)
(0.0970227 0.000426105 0)
(0.0968664 0.000436532 0)
(0.0967096 0.000447154 0)
(0.0965522 0.000457948 0)
(0.0963943 0.000468904 0)
(0.0962358 0.000480023 0)
(0.0960768 0.000491322 0)
(0.0959173 0.000502824 0)
(0.0957572 0.000514554 0)
(0.0955966 0.000526539 0)
(0.0954354 0.000538806 0)
(0.0952737 0.000551386 0)
(0.0951115 0.000564301 0)
(0.0949487 0.000577571 0)
(0.0947854 0.000591208 0)
(0.0946217 0.000605214 0)
(0.0944576 0.000619583 0)
(0.0942931 0.000634299 0)
(0.0941283 0.000649342 0)
(0.0939634 0.000664688 0)
(0.0937983 0.000680321 0)
(0.0936332 0.000696227 0)
(0.0934682 0.000712401 0)
(0.0933033 0.000728847 0)
(0.0931387 0.000745576 0)
(0.0929745 0.000762609 0)
(0.0928108 0.000779979 0)
(0.0926476 0.00079774 0)
(0.0924851 0.000815961 0)
(0.0923234 0.000834735 0)
(0.0921625 0.00085418 0)
(0.0920025 0.000874446 0)
(0.0918435 0.000895724 0)
(0.0916854 0.000918253 0)
(0.0915284 0.000942329 0)
(0.0913723 0.000968314 0)
(0.0912173 0.000996652 0)
(0.0910633 0.00102788 0)
(0.0909103 0.00106266 0)
(0.0907582 0.00110177 0)
(0.090607 0.00114617 0)
(0.0904569 0.00119703 0)
(0.0903077 0.00125573 0)
(0.0901598 0.00132395 0)
(0.0900133 0.00140371 0)
(0.0898688 0.00149739 0)
(0.0897272 0.00160785 0)
(0.0895895 0.00173848 0)
(0.0894578 0.0018932 0)
(0.0893348 0.00207659 0)
(0.0892243 0.00229378 0)
(0.0891319 0.00255048 0)
(0.0890651 0.00285267 0)
(0.0890342 0.0032063 0)
(0.0890527 0.00361655 0)
(0.0891382 0.00408676 0)
(0.0893125 0.00461676 0)
(0.0896015 0.00520053 0)
(0.090034 0.00582302 0)
(0.0906387 0.00645662 0)
(0.0914375 0.00705792 0)
(0.0924369 0.00756721 0)
(0.0936152 0.00791465 0)
(0.0999999 0.000269103 0)
(0.0999278 0.000544664 0)
(0.0997534 0.00060068 0)
(0.0995344 0.000513812 0)
(0.0993207 0.000417584 0)
(0.0991285 0.000367019 0)
(0.0989556 0.000356029 0)
(0.0987952 0.00036454 0)
(0.0986413 0.000378875 0)
(0.0984905 0.000393206 0)
(0.098341 0.000406066 0)
(0.0981918 0.000417648 0)
(0.0980427 0.0004285 0)
(0.0978935 0.000439098 0)
(0.0977439 0.000449754 0)
(0.0975939 0.000460641 0)
(0.0974435 0.000471832 0)
(0.0972927 0.000483347 0)
(0.0971414 0.00049516 0)
(0.0969895 0.000507239 0)
(0.0968372 0.000519556 0)
(0.0966843 0.00053209 0)
(0.0965309 0.000544832 0)
(0.0963769 0.000557786 0)
(0.0962224 0.000570971 0)
(0.0960673 0.000584413 0)
(0.0959116 0.000598141 0)
(0.0957553 0.000612182 0)
(0.0955985 0.000626564 0)
(0.0954411 0.000641316 0)
(0.095283 0.000656459 0)
(0.0951245 0.00067201 0)
(0.0949654 0.000687976 0)
(0.0948059 0.000704354 0)
(0.0946459 0.000721133 0)
(0.0944857 0.000738294 0)
(0.0943251 0.000755809 0)
(0.0941645 0.000773652 0)
(0.0940037 0.000791798 0)
(0.0938431 0.000810231 0)
(0.0936825 0.000828941 0)
(0.0935223 0.000847928 0)
(0.0933625 0.000867197 0)
(0.0932032 0.000886769 0)
(0.0930445 0.000906676 0)
(0.0928867 0.000926969 0)
(0.0927297 0.000947718 0)
(0.0925738 0.000969016 0)
(0.092419 0.000990983 0)
(0.0922655 0.00101377 0)
(0.0921133 0.00103758 0)
(0.0919627 0.00106265 0)
(0.0918136 0.00108927 0)
(0.0916661 0.00111782 0)
(0.0915205 0.00114873 0)
(0.0913768 0.00118253 0)
(0.0912352 0.00121985 0)
(0.0910958 0.00126147 0)
(0.0909588 0.00130828 0)
(0.0908247 0.00136136 0)
(0.0906938 0.00142198 0)
(0.0905667 0.00149161 0)
(0.0904441 0.00157201 0)
(0.0903272 0.00166518 0)
(0.0902175 0.0017734 0)
(0.0901167 0.00189929 0)
(0.0900277 0.0020457 0)
(0.0899539 0.00221573 0)
(0.0898999 0.00241257 0)
(0.0898716 0.00263937 0)
(0.0898765 0.00289884 0)
(0.0899242 0.0031929 0)
(0.0900262 0.00352194 0)
(0.0901961 0.00388404 0)
(0.0904496 0.00427383 0)
(0.0908033 0.00468125 0)
(0.0912738 0.00509029 0)
(0.0918746 0.00547804 0)
(0.092613 0.00581468 0)
(0.0934853 0.00606527 0)
(0.0944721 0.00619454 0)
(0.100003 0.000277337 0)
(0.0999539 0.000583315 0)
(0.0998084 0.00066495 0)
(0.0996076 0.000588351 0)
(0.0994008 0.000490682 0)
(0.0992096 0.000434708 0)
(0.0990361 0.000419085 0)
(0.0988757 0.000424977 0)
(0.098723 0.000438376 0)
(0.0985746 0.000452832 0)
(0.0984283 0.000466412 0)
(0.0982829 0.000479038 0)
(0.0981378 0.000491116 0)
(0.0979928 0.000503056 0)
(0.0978476 0.00051514 0)
(0.0977021 0.000527522 0)
(0.0975563 0.000540266 0)
(0.09741 0.000553386 0)
(0.0972633 0.000566856 0)
(0.0971162 0.000580643 0)
(0.0969685 0.000594718 0)
(0.0968204 0.000609062 0)
(0.0966717 0.000623671 0)
(0.0965224 0.000638547 0)
(0.0963726 0.000653713 0)
(0.0962221 0.000669199 0)
(0.0960711 0.000685033 0)
(0.0959194 0.000701243 0)
(0.0957671 0.000717857 0)
(0.0956142 0.000734898 0)
(0.0954607 0.000752386 0)
(0.0953066 0.000770331 0)
(0.0951521 0.000788735 0)
(0.094997 0.000807588 0)
(0.0948416 0.000826873 0)
(0.094686 0.000846563 0)
(0.0945301 0.000866625 0)
(0.0943741 0.000887027 0)
(0.0942182 0.000907736 0)
(0.0940624 0.000928729 0)
(0.0939069 0.000949989 0)
(0.0937518 0.00097151 0)
(0.0935973 0.000993291 0)
(0.0934436 0.00101535 0)
(0.0932906 0.0010377 0)
(0.0931388 0.0010604 0)
(0.0929881 0.00108351 0)
(0.0928387 0.00110712 0)
(0.0926909 0.00113134 0)
(0.0925447 0.00115632 0)
(0.0924004 0.00118224 0)
(0.0922581 0.00120934 0)
(0.092118 0.00123789 0)
(0.0919803 0.00126824 0)
(0.0918453 0.00130079 0)
(0.0917132 0.00133604 0)
(0.0915844 0.00137456 0)
(0.0914591 0.00141702 0)
(0.0913379 0.00146421 0)
(0.0912214 0.00151705 0)
(0.0911103 0.00157659 0)
(0.0910054 0.00164403 0)
(0.090908 0.00172072 0)
(0.0908195 0.00180813 0)
(0.0907418 0.0019079 0)
(0.0906773 0.00202171 0)
(0.0906289 0.0021513 0)
(0.0906005 0.0022983 0)
(0.0905964 0.00246414 0)
(0.0906224 0.00264976 0)
(0.090685 0.00285538 0)
(0.0907919 0.00308007 0)
(0.0909519 0.00332133 0)
(0.0911746 0.0035745 0)
(0.0914698 0.00383229 0)
(0.0918469 0.00408427 0)
(0.092314 0.00431669 0)
(0.0928758 0.00451272 0)
(0.0935321 0.00465345 0)
(0.0942759 0.00471977 0)
(0.0950919 0.00469529 0)
(0.100005 0.000281865 0)
(0.0999724 0.000615943 0)
(0.0998514 0.000725462 0)
(0.0996692 0.00066294 0)
(0.0994723 0.000566689 0)
(0.0992852 0.000506498 0)
(0.0991134 0.000486291 0)
(0.0989544 0.000489153 0)
(0.0988039 0.000501148 0)
(0.0986583 0.000515363 0)
(0.0985154 0.000529423 0)
(0.0983739 0.000542951 0)
(0.0982331 0.000556185 0)
(0.0980925 0.000569443 0)
(0.0979518 0.000582956 0)
(0.097811 0.000596852 0)
(0.0976699 0.000611181 0)
(0.0975284 0.000625947 0)
(0.0973866 0.000641124 0)
(0.0972443 0.000656674 0)
(0.0971015 0.000672571 0)
(0.0969582 0.0006888 0)
(0.0968144 0.000705355 0)
(0.0966699 0.000722245 0)
(0.0965249 0.000739489 0)
(0.0963793 0.00075712 0)
(0.0962331 0.000775167 0)
(0.0960862 0.000793657 0)
(0.0959386 0.000812612 0)
(0.0957905 0.000832053 0)
(0.0956417 0.000851992 0)
(0.0954924 0.000872432 0)
(0.0953426 0.000893368 0)
(0.0951924 0.00091478 0)
(0.0950419 0.000936644 0)
(0.0948912 0.000958925 0)
(0.0947403 0.000981581 0)
(0.0945895 0.00100457 0)
(0.0944388 0.00102785 0)
(0.0942884 0.0010514 0)
(0.0941384 0.00107518 0)
(0.093989 0.00109918 0)
(0.0938404 0.00112338 0)
(0.0936927 0.0011478 0)
(0.0935462 0.00117244 0)
(0.093401 0.00119735 0)
(0.0932572 0.00122257 0)
(0.0931152 0.00124817 0)
(0.0929751 0.00127426 0)
(0.0928372 0.00130096 0)
(0.0927016 0.00132844 0)
(0.0925686 0.00135689 0)
(0.0924386 0.00138656 0)
(0.0923117 0.00141774 0)
(0.0921885 0.00145078 0)
(0.0920691 0.00148609 0)
(0.0919542 0.00152414 0)
(0.0918443 0.00156547 0)
(0.09174 0.0016107 0)
(0.091642 0.00166053 0)
(0.0915515 0.00171572 0)
(0.0914694 0.00177711 0)
(0.0913973 0.00184559 0)
(0.0913368 0.00192207 0)
(0.0912899 0.00200744 0)
(0.0912593 0.00210254 0)
(0.0912477 0.00220803 0)
(0.0912587 0.00232431 0)
(0.0912964 0.00245134 0)
(0.0913654 0.0025885 0)
(0.091471 0.00273432 0)
(0.0916188 0.00288625 0)
(0.0918149 0.00304039 0)
(0.0920652 0.00319124 0)
(0.0923752 0.00333154 0)
(0.0927495 0.0034523 0)
(0.0931907 0.00354301 0)
(0.0936993 0.00359235 0)
(0.0942719 0.00358921 0)
(0.0949013 0.00352414 0)
(0.0955761 0.00339098 0)
(0.100006 0.000283737 0)
(0.0999845 0.000643503 0)
(0.0998839 0.000782214 0)
(0.0997199 0.000736757 0)
(0.0995347 0.000644545 0)
(0.0993543 0.000581539 0)
(0.0991864 0.000557119 0)
(0.0990302 0.000556792 0)
(0.0988826 0.000567067 0)
(0.0987403 0.000580748 0)
(0.0986011 0.000595071 0)
(0.0984637 0.000609361 0)
(0.0983272 0.000623671 0)
(0.0981911 0.00063821 0)
(0.0980552 0.000653146 0)
(0.0979191 0.000668569 0)
(0.0977829 0.000684509 0)
(0.0976464 0.00070096 0)
(0.0975094 0.000717891 0)
(0.0973721 0.000735264 0)
(0.0972343 0.00075305 0)
(0.097096 0.000771237 0)
(0.0969572 0.000789823 0)
(0.0968178 0.000808816 0)
(0.0966777 0.000828235 0)
(0.0965371 0.000848111 0)
(0.0963958 0.000868472 0)
(0.0962538 0.000889342 0)
(0.0961112 0.000910739 0)
(0.095968 0.000932676 0)
(0.0958242 0.000955156 0)
(0.0956799 0.000978175 0)
(0.0955352 0.00100171 0)
(0.0953901 0.00102575 0)
(0.0952448 0.00105023 0)
(0.0950993 0.00107514 0)
(0.0949539 0.0011004 0)
(0.0948086 0.00112597 0)
(0.0946635 0.00115179 0)
(0.094519 0.00117783 0)
(0.094375 0.00120405 0)
(0.0942319 0.0012304 0)
(0.0940897 0.00125688 0)
(0.0939488 0.00128346 0)
(0.0938093 0.00131015 0)
(0.0936714 0.00133697 0)
(0.0935353 0.00136393 0)
(0.0934014 0.0013911 0)
(0.0932699 0.00141855 0)
(0.0931409 0.00144637 0)
(0.0930149 0.00147468 0)
(0.0928922 0.00150363 0)
(0.0927731 0.00153342 0)
(0.092658 0.00156426 0)
(0.0925473 0.00159641 0)
(0.0924417 0.00163016 0)
(0.0923416 0.00166585 0)
(0.0922477 0.00170385 0)
(0.0921609 0.00174457 0)
(0.092082 0.00178844 0)
(0.0920122 0.0018359 0)
(0.0919527 0.0018874 0)
(0.0919051 0.00194335 0)
(0.091871 0.00200411 0)
(0.0918524 0.00206991 0)
(0.0918518 0.0021408 0)
(0.0918718 0.00221659 0)
(0.0919153 0.00229672 0)
(0.0919856 0.00238016 0)
(0.0920864 0.00246529 0)
(0.0922214 0.00254973 0)
(0.0923943 0.00263025 0)
(0.0926089 0.00270263 0)
(0.0928685 0.00276162 0)
(0.0931755 0.00280097 0)
(0.0935315 0.00281366 0)
(0.0939365 0.00279232 0)
(0.0943888 0.00272987 0)
(0.0948844 0.00262044 0)
(0.0954172 0.00246036 0)
(0.0959787 0.00224898 0)
(0.100006 0.000283859 0)
(0.099992 0.000666981 0)
(0.0999078 0.00083539 0)
(0.0997608 0.000809192 0)
(0.0995885 0.000723322 0)
(0.0994166 0.000659007 0)
(0.0992542 0.000630997 0)
(0.0991021 0.000627555 0)
(0.0989582 0.000635954 0)
(0.0988197 0.000648893 0)
(0.0986845 0.000663297 0)
(0.0985514 0.00067822 0)
(0.0984194 0.000693526 0)
(0.098288 0.000709303 0)
(0.0981568 0.000725646 0)
(0.0980256 0.000742603 0)
(0.0978944 0.000760177 0)
(0.0977628 0.000778349 0)
(0.097631 0.000797081 0)
(0.0974987 0.000816334 0)
(0.097366 0.000836076 0)
(0.0972328 0.000856297 0)
(0.0970991 0.000876994 0)
(0.0969647 0.000898177 0)
(0.0968298 0.000919864 0)
(0.0966942 0.000942079 0)
(0.096558 0.000964847 0)
(0.0964211 0.000988186 0)
(0.0962836 0.00101211 0)
(0.0961456 0.00103662 0)
(0.096007 0.0010617 0)
(0.0958679 0.00108735 0)
(0.0957285 0.00111354 0)
(0.0955889 0.00114022 0)
(0.0954491 0.00116734 0)
(0.0953093 0.00119486 0)
(0.0951696 0.00122269 0)
(0.0950303 0.00125079 0)
(0.0948914 0.00127907 0)
(0.0947531 0.00130749 0)
(0.0946157 0.00133599 0)
(0.0944793 0.00136452 0)
(0.0943442 0.00139303 0)
(0.0942106 0.0014215 0)
(0.0940787 0.0014499 0)
(0.0939488 0.00147822 0)
(0.0938211 0.00150647 0)
(0.093696 0.00153465 0)
(0.0935737 0.00156281 0)
(0.0934545 0.001591 0)
(0.0933389 0.00161927 0)
(0.0932272 0.00164772 0)
(0.0931198 0.00167645 0)
(0.0930171 0.00170559 0)
(0.0929198 0.00173529 0)
(0.0928285 0.00176569 0)
(0.0927437 0.00179698 0)
(0.0926663 0.00182932 0)
(0.0925971 0.00186289 0)
(0.0925371 0.00189785 0)
(0.0924874 0.00193431 0)
(0.0924494 0.00197234 0)
(0.0924245 0.00201192 0)
(0.0924143 0.00205289 0)
(0.0924206 0.00209495 0)
(0.0924454 0.00213755 0)
(0.092491 0.00217987 0)
(0.0925596 0.00222073 0)
(0.0926538 0.00225852 0)
(0.092776 0.00229111 0)
(0.0929287 0.00231584 0)
(0.0931141 0.00232941 0)
(0.0933343 0.0023279 0)
(0.0935905 0.00230683 0)
(0.0938836 0.00226126 0)
(0.0942135 0.0021861 0)
(0.0945789 0.00207649 0)
(0.0949774 0.00192839 0)
(0.0954053 0.00173931 0)
(0.0958579 0.00150893 0)
(0.096329 0.00123961 0)
(0.100005 0.000282964 0)
(0.0999961 0.000687327 0)
(0.0999249 0.000885318 0)
(0.0997935 0.000879871 0)
(0.0996343 0.000802284 0)
(0.099472 0.000738154 0)
(0.0993165 0.000707351 0)
(0.0991697 0.00070107 0)
(0.0990301 0.000707587 0)
(0.0988959 0.000719666 0)
(0.098765 0.000734019 0)
(0.0986364 0.000749468 0)
(0.098509 0.000765694 0)
(0.0983824 0.000782663 0)
(0.0982561 0.000800393 0)
(0.0981299 0.000818884 0)
(0.0980037 0.000838112 0)
(0.0978773 0.000858035 0)
(0.0977506 0.000878612 0)
(0.0976235 0.000899798 0)
(0.0974959 0.000921562 0)
(0.0973679 0.000943887 0)
(0.0972394 0.000966772 0)
(0.0971102 0.000990224 0)
(0.0969804 0.00101426 0)
(0.0968501 0.0010389 0)
(0.0967191 0.00106415 0)
(0.0965875 0.00109003 0)
(0.0964553 0.00111654 0)
(0.0963226 0.00114367 0)
(0.0961895 0.00117141 0)
(0.0960559 0.00119972 0)
(0.0959222 0.00122856 0)
(0.0957882 0.00125787 0)
(0.0956543 0.0012876 0)
(0.0955205 0.00131766 0)
(0.0953871 0.00134799 0)
(0.0952541 0.00137849 0)
(0.0951218 0.0014091 0)
(0.0949903 0.00143972 0)
(0.0948599 0.00147028 0)
(0.0947309 0.00150071 0)
(0.0946034 0.00153095 0)
(0.0944776 0.00156093 0)
(0.094354 0.00159061 0)
(0.0942327 0.00161994 0)
(0.094114 0.00164888 0)
(0.0939983 0.00167741 0)
(0.0938859 0.00170551 0)
(0.0937772 0.00173317 0)
(0.0936725 0.00176039 0)
(0.0935724 0.00178717 0)
(0.0934773 0.00181352 0)
(0.0933876 0.00183947 0)
(0.0933041 0.00186502 0)
(0.0932273 0.00189018 0)
(0.0931579 0.00191495 0)
(0.0930968 0.0019393 0)
(0.0930448 0.00196316 0)
(0.093003 0.00198643 0)
(0.0929723 0.00200893 0)
(0.092954 0.00203038 0)
(0.0929493 0.0020504 0)
(0.0929598 0.00206845 0)
(0.0929869 0.00208381 0)
(0.0930322 0.00209554 0)
(0.0930974 0.00210242 0)
(0.0931841 0.00210294 0)
(0.0932942 0.00209524 0)
(0.093429 0.0020771 0)
(0.0935901 0.0020459 0)
(0.0937785 0.00199867 0)
(0.0939951 0.00193206 0)
(0.0942401 0.00184252 0)
(0.0945133 0.00172636 0)
(0.0948138 0.00158008 0)
(0.09514 0.00140069 0)
(0.0954894 0.00118623 0)
(0.0958591 0.000936266 0)
(0.0962453 0.000652465 0)
(0.0966435 0.000338781 0)
(0.100005 0.000281613 0)
(0.0999978 0.000705399 0)
(0.0999368 0.000932403 0)
(0.0998193 0.000948615 0)
(0.0996731 0.000880861 0)
(0.0995211 0.000818315 0)
(0.0993734 0.000785616 0)
(0.0992326 0.000776927 0)
(0.0990982 0.000781689 0)
(0.0989687 0.000792883 0)
(0.0988425 0.00080711 0)
(0.0987185 0.000823005 0)