/*--------------------------------*- C++ -*----------------------------------*\
| =========                 |                                                 |
| \\      /  F ield         | OpenFOAM: The Open Source CFD Toolbox           |
|  \\    /   O peration     | Version:  4.1                                   |
|   \\  /    A nd           | Web:      www.OpenFOAM.org                      |
|    \\/     M anipulation  |                                                 |
\*---------------------------------------------------------------------------*/
FoamFile
{
    version     2.0;
    format      ascii;
    class       surfaceScalarField;
    location    "0.2";
    object      phi;
}
// * * * * * * * * * * * * * * * * * * * * * * * * * * * * * * * * * * * * * //

dimensions      [1 0 -1 0 0 0 0];

internalField   nonuniform List<scalar> 
23692
(
9.28777e-05
2.0185e-07
9.25503e-05
3.27448e-07
9.22489e-05
3.0136e-07
9.20395e-05
2.09439e-07
9.18962e-05
1.43304e-07
9.17763e-05
1.19942e-07
9.16548e-05
1.21536e-07
9.15239e-05
1.30921e-07
9.1384e-05
1.39879e-07
9.12378e-05
1.46225e-07
9.10876e-05
1.50197e-07
9.09351e-05
1.52532e-07
9.07813e-05
1.53862e-07
9.06267e-05
1.54596e-07
9.04717e-05
1.54985e-07
9.03166e-05
1.55184e-07
9.01613e-05
1.55291e-07
9.00059e-05
1.55376e-07
8.98504e-05
1.5549e-07
8.96948e-05
1.55672e-07
8.95388e-05
1.55951e-07
8.93825e-05
1.56356e-07
8.92256e-05
1.56906e-07
8.9068e-05
1.57614e-07
8.89095e-05
1.58484e-07
8.875e-05
1.5951e-07
8.85893e-05
1.60678e-07
8.84273e-05
1.61974e-07
8.8264e-05
1.63371e-07
8.80991e-05
1.64846e-07
8.79328e-05
1.66376e-07
8.77648e-05
1.67938e-07
8.75953e-05
1.69514e-07
8.74242e-05
1.71089e-07
8.72516e-05
1.72647e-07
8.70774e-05
1.74177e-07
8.69018e-05
1.75673e-07
8.67246e-05
1.77139e-07
8.65461e-05
1.78574e-07
8.63661e-05
1.79981e-07
8.61847e-05
1.81365e-07
8.6002e-05
1.82735e-07
8.58179e-05
1.841e-07
8.56324e-05
1.85473e-07
8.54456e-05
1.86872e-07
8.52573e-05
1.88318e-07
8.50674e-05
1.89836e-07
8.4876e-05
1.91455e-07
8.46828e-05
1.93208e-07
8.44876e-05
1.95136e-07
8.42904e-05
1.97284e-07
8.40906e-05
1.99709e-07
8.38882e-05
2.02476e-07
8.36825e-05
2.05658e-07
8.34732e-05
2.0935e-07
8.32595e-05
2.13658e-07
8.30408e-05
2.18716e-07
8.28161e-05
2.24684e-07
8.25844e-05
2.31764e-07
8.23442e-05
2.40206e-07
8.20939e-05
2.50323e-07
8.18313e-05
2.62518e-07
8.1554e-05
2.77303e-07
8.12587e-05
2.95341e-07
8.09412e-05
3.17505e-07
8.05963e-05
3.4495e-07
8.0217e-05
3.79232e-07
7.97945e-05
4.2248e-07
7.93169e-05
4.77646e-07
7.8768e-05
5.48906e-07
7.81257e-05
6.42267e-07
7.73592e-05
7.66536e-07
7.64243e-05
9.34862e-07
7.52571e-05
1.16721e-06
7.37628e-05
1.49439e-06
7.17984e-05
1.96436e-06
6.91463e-05
2.65207e-06
6.54711e-05
3.67527e-06
6.02408e-05
5.23032e-06
5.25621e-05
7.6787e-06
1.19756e-05
4.05864e-05
9.93927e-05
4.08518e-07
9.90495e-05
6.7065e-07
9.87296e-05
6.21314e-07
9.85045e-05
4.34506e-07
9.83489e-05
2.98978e-07
9.82184e-05
2.50411e-07
9.8087e-05
2.52945e-07
9.79463e-05
2.71634e-07
9.77966e-05
2.89656e-07
9.76403e-05
3.02471e-07
9.74801e-05
3.10505e-07
9.73174e-05
3.15237e-07
9.71533e-05
3.17939e-07
9.69885e-05
3.19429e-07
9.68233e-05
3.20223e-07
9.66578e-05
3.20633e-07
9.64923e-05
3.20863e-07
9.63266e-05
3.21051e-07
9.61608e-05
3.21299e-07
9.59948e-05
3.21688e-07
9.58285e-05
3.22285e-07
9.56617e-05
3.23136e-07
9.54943e-05
3.24286e-07
9.53262e-05
3.25764e-07
9.51571e-05
3.27572e-07
9.49869e-05
3.297e-07
9.48155e-05
3.32123e-07
9.46427e-05
3.34802e-07
9.44683e-05
3.37689e-07
9.42925e-05
3.40734e-07
9.4115e-05
3.43891e-07
9.39358e-05
3.4711e-07
9.37549e-05
3.5036e-07
9.35724e-05
3.53603e-07
9.33883e-05
3.56809e-07
9.32025e-05
3.59958e-07
9.30151e-05
3.6304e-07
9.28262e-05
3.66051e-07
9.26358e-05
3.68999e-07
9.24439e-05
3.71887e-07
9.22506e-05
3.74728e-07
9.20558e-05
3.77535e-07
9.18595e-05
3.8033e-07
9.16619e-05
3.83141e-07
9.14627e-05
3.86002e-07
9.12621e-05
3.88956e-07
9.10599e-05
3.92055e-07
9.0856e-05
3.95358e-07
9.06503e-05
3.98933e-07
9.04426e-05
4.0286e-07
9.02326e-05
4.07235e-07
9.00202e-05
4.12171e-07
8.98048e-05
4.17797e-07
8.95862e-05
4.24271e-07
8.93638e-05
4.31775e-07
8.91369e-05
4.4053e-07
8.89049e-05
4.50802e-07
8.86666e-05
4.62918e-07
8.84211e-05
4.77282e-07
8.81669e-05
4.94392e-07
8.79024e-05
5.14882e-07
8.76254e-05
5.39545e-07
8.73333e-05
5.694e-07
8.70229e-05
6.05759e-07
8.669e-05
6.50328e-07
8.63296e-05
7.0536e-07
8.5935e-05
7.73858e-07
8.54976e-05
8.59885e-07
8.50062e-05
9.69018e-07
8.44461e-05
1.10902e-06
8.37976e-05
1.29085e-06
8.30339e-05
1.53024e-06
8.21187e-05
1.85005e-06
8.10021e-05
2.28379e-06
7.96156e-05
2.88084e-06
7.78666e-05
3.71337e-06
7.56349e-05
4.88384e-06
7.27807e-05
6.52942e-06
6.91921e-05
8.81894e-06
6.4988e-05
1.18829e-05
1.53244e-05
6.16392e-05
0.000106374
6.10765e-07
0.000106024
1.02059e-06
0.000105689
9.55588e-07
0.000105446
6.77493e-07
0.000105274
4.71522e-07
0.000105129
3.95314e-07
0.000104985
3.96794e-07
0.000104833
4.23592e-07
0.000104673
4.50072e-07
0.000104506
4.69084e-07
0.000104336
4.81068e-07
0.000104163
4.88153e-07
0.000103989
4.92202e-07
0.000103814
4.94446e-07
0.000103638
4.95653e-07
0.000103463
4.96288e-07
0.000103287
4.96665e-07
0.000103111
4.96987e-07
0.000102935
4.97413e-07
0.000102758
4.98065e-07
0.000102582
4.99037e-07
0.000102404
5.00405e-07
0.000102226
5.02232e-07
0.000102048
5.04558e-07
0.000101868
5.07393e-07
0.000101687
5.10712e-07
0.000101504
5.14477e-07
0.000101321
5.18631e-07
0.000101135
5.23099e-07
0.000100948
5.27806e-07
0.000100759
5.32677e-07
0.000100569
5.37643e-07
0.000100377
5.42646e-07
0.000100183
5.47636e-07
9.99868e-05
5.52566e-07
9.97894e-05
5.57406e-07
9.95903e-05
5.62136e-07
9.93896e-05
5.66756e-07
9.91873e-05
5.71271e-07
9.89835e-05
5.75692e-07
9.87782e-05
5.80032e-07
9.85714e-05
5.84317e-07
9.83632e-05
5.88577e-07
9.81535e-05
5.92856e-07
9.79423e-05
5.97203e-07
9.77296e-05
6.01687e-07
9.75152e-05
6.06383e-07
9.72992e-05
6.11382e-07
9.70814e-05
6.16786e-07
9.68615e-05
6.22719e-07
9.66394e-05
6.29322e-07
9.64148e-05
6.36766e-07
9.61874e-05
6.45246e-07
9.59567e-05
6.54998e-07
9.57222e-05
6.66297e-07
9.54832e-05
6.7947e-07
9.52391e-05
6.94917e-07
9.49889e-05
7.13123e-07
9.47315e-05
7.34685e-07
9.44656e-05
7.60343e-07
9.41894e-05
7.91023e-07
9.39011e-05
8.27885e-07
9.35981e-05
8.72406e-07
9.32774e-05
9.26471e-07
9.29352e-05
9.92512e-07
9.25669e-05
1.0737e-06
9.21665e-05
1.17421e-06
9.17268e-05
1.29961e-06
9.12385e-05
1.45736e-06
9.06899e-05
1.65764e-06
9.00663e-05
1.91442e-06
8.93494e-05
2.24709e-06
8.85169e-05
2.68263e-06
8.75421e-05
3.25859e-06
8.63963e-05
4.02662e-06
8.50542e-05
5.05548e-06
8.35079e-05
6.43011e-06
8.17983e-05
8.23903e-06
8.00839e-05
1.05333e-05
7.87693e-05
1.31975e-05
1.55947e-05
7.84989e-05
0.000113853
7.99216e-07
0.000113508
1.36541e-06
0.000113164
1.29919e-06
0.000112901
9.40262e-07
0.000112707
6.65539e-07
0.000112544
5.58875e-07
0.000112385
5.55914e-07
0.00011222
5.88374e-07
0.000112048
6.21888e-07
0.000111871
6.46354e-07
0.00011169
6.61915e-07
0.000111507
6.71169e-07
0.000111323
6.76482e-07
0.000111138
6.79443e-07
0.000110952
6.81055e-07
0.000110767
6.81935e-07
0.000110581
6.82493e-07
0.000110395
6.83009e-07
0.000110209
6.83685e-07
0.000110022
6.84678e-07
0.000109835
6.86118e-07
0.000109647
6.88101e-07
0.000109459
6.90708e-07
0.00010927
6.93989e-07
0.000109079
6.97951e-07
0.000108887
7.02564e-07
0.000108694
7.0777e-07
0.000108499
7.13492e-07
0.000108302
7.1963e-07
0.000108104
7.26084e-07
0.000107904
7.32748e-07
0.000107702
7.3953e-07
0.000107499
7.46353e-07
0.000107293
7.53149e-07
0.000107086
7.59857e-07
0.000106877
7.6643e-07
0.000106666
7.72852e-07
0.000106454
7.79113e-07
0.00010624
7.85221e-07
0.000106024
7.91189e-07
0.000105807
7.97038e-07
0.000105589
8.02801e-07
0.000105369
8.08519e-07
0.000105147
8.14248e-07
0.000104925
8.20059e-07
0.0001047
8.26037e-07
0.000104474
8.32287e-07
0.000104247
8.38926e-07
0.000104018
8.46091e-07
0.000103786
8.53943e-07
0.000103553
8.62674e-07
0.000103317
8.72503e-07
0.000103079
8.83695e-07
0.000102837
8.96553e-07
0.000102592
9.11437e-07
0.000102343
9.2878e-07
0.000102089
9.491e-07
0.000101829
9.73024e-07
0.000101562
1.00132e-06
0.000101287
1.03494e-06
0.000101003
1.07506e-06
0.000100708
1.12314e-06
0.0001004
1.18103e-06
0.000100075
1.25106e-06
9.97313e-05
1.33618e-06
9.93648e-05
1.44021e-06
9.8971e-05
1.56804e-06
9.85445e-05
1.72609e-06
9.80792e-05
1.92271e-06
9.75679e-05
2.16895e-06
9.70029e-05
2.47941e-06
9.63766e-05
2.87339e-06
9.56829e-05
3.37635e-06
9.49201e-05
4.0213e-06
9.40971e-05
4.84971e-06
9.32424e-05
5.91018e-06
9.24211e-05
7.25138e-06
9.17578e-05
8.90233e-06
9.14627e-05
1.08284e-05
9.18179e-05
1.28424e-05
1.44615e-05
9.29511e-05
0.000121863
9.65249e-07
0.000121535
1.69348e-06
0.000121188
1.6463e-06
0.000120905
1.22353e-06
0.000120685
8.84846e-07
0.000120499
7.44938e-07
0.000120322
7.33018e-07
0.000120143
7.67542e-07
0.000119959
8.05845e-07
0.000119771
8.34521e-07
0.00011958
8.53014e-07
0.000119387
8.641e-07
0.000119193
8.70507e-07
0.000118998
8.74107e-07
0.000118803
8.76104e-07
0.000118608
8.77251e-07
0.000118412
8.78047e-07
0.000118217
8.7883e-07
0.00011802
8.79851e-07
0.000117824
8.81302e-07
0.000117627
8.83337e-07
0.000117429
8.86069e-07
0.00011723
8.89588e-07
0.00011703
8.93953e-07
0.000116829
8.99168e-07
0.000116626
9.05192e-07
0.000116422
9.11947e-07
0.000116216
9.19334e-07
0.000116008
9.27227e-07
0.000115799
9.35498e-07
0.000115588
9.4402e-07
0.000115375
9.52672e-07
0.00011516
9.61358e-07
0.000114943
9.69993e-07
0.000114724
9.78502e-07
0.000114504
9.86829e-07
0.000114282
9.94946e-07
0.000114058
1.00285e-06
0.000113833
1.01053e-06
0.000113606
1.01802e-06
0.000113378
1.02535e-06
0.000113148
1.03254e-06
0.000112917
1.03966e-06
0.000112684
1.04677e-06
0.00011245
1.05395e-06
0.000112215
1.06132e-06
0.000111978
1.069e-06
0.00011174
1.07714e-06
0.0001115
1.0859e-06
0.000111259
1.09547e-06
0.000111015
1.1061e-06
0.00011077
1.11805e-06
0.000110522
1.13163e-06
0.000110271
1.14722e-06
0.000110017
1.16525e-06
0.00010976
1.18624e-06
0.000109498
1.2108e-06
0.000109232
1.23968e-06
0.000108959
1.27378e-06
0.00010868
1.31421e-06
0.000108393
1.36233e-06
0.000108096
1.41981e-06
0.000107788
1.48873e-06
0.000107468
1.57167e-06
0.000107132
1.67187e-06
0.000106779
1.79337e-06
0.000106406
1.94129e-06
0.00010601
2.1221e-06
0.000105588
2.34397e-06
0.00010514
2.61723e-06
0.000104665
2.9549e-06
0.000104165
3.37317e-06
0.000103649
3.8919e-06
0.000103136
4.53452e-06
0.000102659
5.32696e-06
0.000102275
6.29403e-06
0.000102075
7.45092e-06
0.000102191
8.78626e-06
0.000102787
1.02328e-05
0.000104005
1.16245e-05
1.26583e-05
0.000105808
0.000130439
1.10276e-06
0.000130137
1.99513e-06
0.000129793
1.99089e-06
0.00012949
1.52631e-06
0.000129243
1.13151e-06
0.000129032
9.56231e-07
0.000128835
9.30258e-07
0.00012864
9.6242e-07
0.000128443
1.0026e-06
0.000128244
1.0338e-06
0.000128043
1.0543e-06
0.00012784
1.06673e-06
0.000127637
1.07397e-06
0.000127433
1.07809e-06
0.000127229
1.08044e-06
0.000127024
1.08187e-06
0.000126819
1.08297e-06
0.000126614
1.08412e-06
0.000126408
1.08562e-06
0.000126202
1.08767e-06
0.000125995
1.09046e-06
0.000125787
1.0941e-06
0.000125577
1.0987e-06
0.000125367
1.1043e-06
0.000125155
1.11091e-06
0.000124942
1.11848e-06
0.000124727
1.12689e-06
0.00012451
1.13604e-06
0.000124292
1.14577e-06
0.000124071
1.15592e-06
0.000123849
1.16634e-06
0.000123625
1.1769e-06
0.000123399
1.18746e-06
0.000123171
1.19794e-06
0.000122941
1.20824e-06
0.00012271
1.2183e-06
0.000122477
1.22808e-06
0.000122242
1.23757e-06
0.000122006
1.24678e-06
0.000121768
1.25572e-06
0.000121529
1.26443e-06
0.000121288
1.27295e-06
0.000121047
1.28134e-06
0.000120804
1.28969e-06
0.00012056
1.29809e-06
0.000120314
1.30667e-06
0.000120068
1.31556e-06
0.00011982
1.32495e-06
0.000119571
1.33501e-06
0.00011932
1.34598e-06
0.000119068
1.35812e-06
0.000118815
1.37173e-06
0.000118559
1.38719e-06
0.000118302
1.4049e-06
0.000118041
1.42535e-06
0.000117779
1.44913e-06
0.000117512
1.47691e-06
0.000117243
1.50953e-06
0.000116968
1.54796e-06
0.000116689
1.5934e-06
0.000116404
1.64731e-06
0.000116113
1.71144e-06
0.000115813
1.78794e-06
0.000115506
1.87941e-06
0.000115189
1.98906e-06
0.000114861
2.12078e-06
0.000114523
2.27935e-06
0.000114175
2.47056e-06
0.000113817
2.70142e-06
0.000113454
2.98033e-06
0.000113092
3.3172e-06
0.000112742
3.72339e-06
0.000112422
4.21144e-06
0.000112162
4.79413e-06
0.000112007
5.48253e-06
0.000112019
6.28225e-06
0.000112283
7.18677e-06
0.000112902
8.16676e-06
0.00011398
9.15556e-06
0.00011557
1.00343e-05
1.06307e-05
0.000117597
0.000139616
1.20926e-06
0.000139347
2.26406e-06
0.000139011
2.32742e-06
0.000138691
1.84578e-06
0.000138418
1.40534e-06
0.00013818
1.19382e-06
0.000137961
1.14888e-06
0.00013775
1.17394e-06
0.00013754
1.21266e-06
0.000137329
1.24437e-06
0.000137118
1.26573e-06
0.000136906
1.27887e-06
0.000136693
1.2866e-06
0.00013648
1.29107e-06
0.000136267
1.29371e-06
0.000136054
1.29545e-06
0.00013584
1.29694e-06
0.000135625
1.29858e-06
0.00013541
1.3007e-06
0.000135194
1.30353e-06
0.000134977
1.30725e-06
0.00013476
1.312e-06
0.00013454
1.31785e-06
0.00013432
1.32486e-06
0.000134098
1.33303e-06
0.000133874
1.34227e-06
0.000133648
1.35246e-06
0.000133421
1.36345e-06
0.000133192
1.37508e-06
0.00013296
1.38715e-06
0.000132727
1.3995e-06
0.000132492
1.41196e-06
0.000132255
1.42439e-06
0.000132017
1.43668e-06
0.000131776
1.44872e-06
0.000131534
1.46045e-06
0.00013129
1.47182e-06
0.000131045
1.48281e-06
0.000130798
1.49343e-06
0.00013055
1.50369e-06
0.000130301
1.51363e-06
0.000130051
1.52331e-06
0.000129799
1.53278e-06
0.000129547
1.54215e-06
0.000129294
1.55152e-06
0.000129039
1.56101e-06
0.000128784
1.5708e-06
0.000128528
1.58105e-06
0.000128271
1.59199e-06
0.000128013
1.60386e-06
0.000127754
1.61695e-06
0.000127494
1.63158e-06
0.000127233
1.64814e-06
0.000126971
1.66708e-06
0.000126708
1.68892e-06
0.000126443
1.71426e-06
0.000126176
1.74382e-06
0.000125907
1.77846e-06
0.000125636
1.81916e-06
0.000125362
1.86715e-06
0.000125085
1.92384e-06
0.000124806
1.99094e-06
0.000124523
2.07049e-06
0.000124238
2.16489e-06
0.00012395
2.27701e-06
0.00012366
2.41023e-06
0.000123371
2.56849e-06
0.000123085
2.75638e-06
0.000122808
2.9791e-06
0.000122546
3.24244e-06
0.00012231
3.55259e-06
0.000122118
3.91577e-06
0.000121992
4.33759e-06
0.000121964
4.82186e-06
0.000122078
5.36882e-06
0.000122388
5.97231e-06
0.000122959
6.61587e-06
0.000123858
7.26766e-06
0.000125138
7.87528e-06
0.000126809
8.36355e-06
8.64154e-06
0.000128798
0.000149433
1.28583e-06
0.000149199
2.49779e-06
0.000148875
2.65141e-06
0.000148544
2.17764e-06
0.000148245
1.70387e-06
0.000147982
1.45698e-06
0.000147742
1.38904e-06
0.000147513
1.40248e-06
0.00014729
1.43635e-06
0.000147068
1.46637e-06
0.000146846
1.48728e-06
0.000146625
1.50037e-06
0.000146403
1.50819e-06
0.000146181
1.5128e-06
0.00014596
1.51566e-06
0.000145737
1.51773e-06
0.000145515
1.51968e-06
0.000145291
1.52194e-06
0.000145067
1.52485e-06
0.000144842
1.52864e-06
0.000144616
1.5335e-06
0.000144388
1.53955e-06
0.000144159
1.54686e-06
0.000143929
1.55547e-06
0.000143696
1.56534e-06
0.000143462
1.57639e-06
0.000143226
1.58846e-06
0.000142988
1.60138e-06
0.000142748
1.61495e-06
0.000142507
1.62897e-06
0.000142263
1.64324e-06
0.000142017
1.65757e-06
0.00014177
1.67181e-06
0.000141521
1.68584e-06
0.00014127
1.69953e-06
0.000141018
1.71281e-06
0.000140764
1.72564e-06
0.000140509
1.73797e-06
0.000140252
1.74983e-06
0.000139995
1.76121e-06
0.000139736
1.77217e-06
0.000139477
1.78275e-06
0.000139217
1.79303e-06
0.000138956
1.8031e-06
0.000138694
1.81308e-06
0.000138432
1.82309e-06
0.000138169
1.83331e-06
0.000137907
1.84392e-06
0.000137643
1.85515e-06
0.00013738
1.86724e-06
0.000137116
1.8805e-06
0.000136853
1.89525e-06
0.000136589
1.91189e-06
0.000136325
1.93087e-06
0.000136062
1.9527e-06
0.000135798
1.97799e-06
0.000135534
2.00744e-06
0.000135271
2.04186e-06
0.000135008
2.08221e-06
0.000134745
2.12959e-06
0.000134484
2.18532e-06
0.000134224
2.2509e-06
0.000133966
2.32808e-06
0.000133712
2.41887e-06
0.000133464
2.52557e-06
0.000133223
2.65074e-06
0.000132995
2.79723e-06
0.000132783
2.9681e-06
0.000132595
3.16651e-06
0.000132442
3.39555e-06
0.000132337
3.65791e-06
0.000132297
3.95545e-06
0.000132346
4.28846e-06
0.000132514
4.65475e-06
0.000132834
5.04841e-06
0.000133348
5.45825e-06
0.000134098
5.8661e-06
0.00013512
6.24519e-06
0.000136436
6.5596e-06
0.000138034
6.76597e-06
6.81973e-06
0.000139855
0.000159932
1.33624e-06
0.000159732
2.69713e-06
0.000159424
2.95971e-06
0.000159085
2.51689e-06
0.000158766
2.023e-06
0.000158479
1.74343e-06
0.000158219
1.64985e-06
0.000157973
1.64788e-06
0.000157736
1.67372e-06
0.000157503
1.69986e-06
0.000157271
1.71894e-06
0.00015704
1.73117e-06
0.00015681
1.73859e-06
0.000156579
1.7431e-06
0.000156349
1.74609e-06
0.000156118
1.7485e-06
0.000155887
1.75099e-06
0.000155655
1.75401e-06
0.000155422
1.75789e-06
0.000155188
1.76284e-06
0.000154952
1.76904e-06
0.000154715
1.77659e-06
0.000154477
1.78555e-06
0.000154236
1.79592e-06
0.000153994
1.80765e-06
0.00015375
1.82063e-06
0.000153503
1.83466e-06
0.000153255
1.84956e-06
0.000153005
1.8651e-06
0.000152753
1.88105e-06
0.000152499
1.89719e-06
0.000152243
1.91333e-06
0.000151986
1.92929e-06
0.000151727
1.94492e-06
0.000151466
1.96012e-06
0.000151204
1.97479e-06
0.000150941
1.98887e-06
0.000150677
2.00235e-06
0.000150411
2.01519e-06
0.000150145
2.02743e-06
0.000149878
2.0391e-06
0.000149611
2.05025e-06
0.000149343
2.06096e-06
0.000149075
2.07131e-06
0.000148806
2.08141e-06
0.000148538
2.09141e-06
0.00014827
2.10145e-06
0.000148002
2.11174e-06
0.000147735
2.12247e-06
0.000147468
2.13391e-06
0.000147202
2.14632e-06
0.000146937
2.16005e-06
0.000146674
2.17545e-06
0.000146412
2.19295e-06
0.000146151
2.21304e-06
0.000145893
2.23627e-06
0.000145637
2.26326e-06
0.000145384
2.29475e-06
0.000145135
2.33156e-06
0.00014489
2.37463e-06
0.00014465
2.42504e-06
0.000144417
2.48398e-06
0.000144193
2.5528e-06
0.000143978
2.63295e-06
0.000143778
2.72601e-06
0.000143595
2.83361e-06
0.000143435
2.95739e-06
0.000143304
3.09886e-06
0.000143211
3.2593e-06
0.000143168
3.43946e-06
0.000143186
3.63931e-06
0.000143284
3.85761e-06
0.000143481
4.09139e-06
0.0001438
4.33538e-06
0.000144268
4.58139e-06
0.000144908
4.81771e-06
0.000145745
5.02874e-06
0.000146795
5.19512e-06
0.00014806
5.29471e-06
0.000149522
5.30476e-06
5.2058e-06
0.000151136
0.000171159
1.36565e-06
0.000170991
2.86521e-06
0.0001707
3.25052e-06
0.000170358
2.85852e-06
0.000170024
2.35777e-06
0.000169717
2.04983e-06
0.000169437
1.92959e-06
0.000169176
1.90943e-06
0.000168925
1.92454e-06
0.00016868
1.94478e-06
0.000168439
1.96067e-06
0.000168199
1.97119e-06
0.00016796
1.97773e-06
0.000167721
1.98188e-06
0.000167482
1.98488e-06
0.000167243
1.98763e-06
0.000167003
1.99075e-06
0.000166763
1.99467e-06
0.000166521
1.99967e-06
0.000166278
2.00596e-06
0.000166033
2.01369e-06
0.000165787
2.02294e-06
0.000165538
2.03373e-06
0.000165288
2.04602e-06
0.000165036
2.05973e-06
0.000164782
2.07472e-06
0.000164526
2.09077e-06
0.000164268
2.10766e-06
0.000164008
2.12514e-06
0.000163746
2.14297e-06
0.000163482
2.1609e-06
0.000163217
2.17872e-06
0.00016295
2.19625e-06
0.000162682
2.21332e-06
0.000162412
2.22982e-06
0.000162141
2.24564e-06
0.000161869
2.26073e-06
0.000161597
2.27505e-06
0.000161323
2.28856e-06
0.000161049
2.3013e-06
0.000160775
2.31328e-06
0.000160501
2.32456e-06
0.000160227
2.3352e-06
0.000159953
2.34527e-06
0.000159679
2.35489e-06
0.000159406
2.36418e-06
0.000159135
2.37328e-06
0.000158864
2.38236e-06
0.000158595
2.39162e-06
0.000158328
2.40129e-06
0.000158062
2.41162e-06
0.000157799
2.4229e-06
0.000157539
2.43545e-06
0.000157283
2.44965e-06
0.00015703
2.4659e-06
0.000156781
2.48467e-06
0.000156538
2.50648e-06
0.000156301
2.53189e-06
0.000156071
2.56156e-06
0.00015585
2.59619e-06
0.000155638
2.63653e-06
0.000155439
2.68342e-06
0.000155254
2.73768e-06
0.000155087
2.80019e-06
0.000154941
2.87174e-06
0.000154821
2.95305e-06
0.000154734
3.04464e-06
0.000154686
3.14671e-06
0.000154687
3.25901e-06
0.000154745
3.38062e-06
0.000154875
3.50975e-06
0.000155089
3.64341e-06
0.000155403
3.77719e-06
0.000155834
3.90498e-06
0.000156397
4.01875e-06
0.000157106
4.10861e-06
0.000157971
4.16304e-06
0.000158997
4.16958e-06
0.000160176
4.11604e-06
0.000161488
3.99217e-06
3.79164e-06
0.000162902
0.000183165
1.37954e-06
0.000183024
3.00645e-06
0.000182751
3.52331e-06
0.000182412
3.19816e-06
0.000182066
2.70305e-06
0.000181744
2.37232e-06
0.000181448
2.22597e-06
0.000181171
2.186e-06
0.000180907
2.18833e-06
0.000180651
2.20094e-06
0.000180399
2.21241e-06
0.00018015
2.22039e-06
0.000179902
2.22555e-06
0.000179655
2.22906e-06
0.000179408
2.23197e-06
0.000179161
2.23505e-06
0.000178913
2.23887e-06
0.000178664
2.24379e-06
0.000178413
2.25007e-06
0.000178161
2.25788e-06
0.000177908
2.26731e-06
0.000177652
2.27842e-06
0.000177395
2.29117e-06
0.000177135
2.3055e-06
0.000176874
2.32127e-06
0.00017661
2.33832e-06
0.000176345
2.3564e-06
0.000176077
2.37525e-06
0.000175808
2.3946e-06
0.000175536
2.41419e-06
0.000175264
2.43377e-06
0.000174989
2.4531e-06
0.000174713
2.47199e-06
0.000174437
2.49026e-06
0.000174159
2.50779e-06
0.00017388
2.52447e-06
0.0001736
2.54023e-06
0.00017332
2.55501e-06
0.00017304
2.56878e-06
0.00017276
2.58155e-06
0.00017248
2.59334e-06
0.0001722
2.60418e-06
0.000171921
2.61412e-06
0.000171643
2.62323e-06
0.000171367
2.6316e-06
0.000171092
2.63931e-06
0.000170818
2.6465e-06
0.000170547
2.65332e-06
0.000170279
2.65992e-06
0.000170014
2.66648e-06
0.000169752
2.67322e-06
0.000169495
2.68037e-06
0.000169242
2.68819e-06
0.000168995
2.69695e-06
0.000168754
2.70696e-06
0.00016852
2.71857e-06
0.000168294
2.73213e-06
0.000168078
2.74804e-06
0.000167873
2.76671e-06
0.000167681
2.78854e-06
0.000167503
2.81398e-06
0.000167343
2.84342e-06
0.000167204
2.8772e-06
0.000167088
2.9156e-06
0.000167001
2.95873e-06
0.000166948
3.00652e-06
0.000166934
3.0586e-06
0.000166966
3.1142e-06
0.000167053
3.17206e-06
0.000167204
3.2303e-06
0.000167427
3.28624e-06
0.000167734
3.3363e-06
0.000168136
3.37592e-06
0.000168641
3.39947e-06
0.000169259
3.40037e-06
0.000169997
3.3713e-06
0.000170855
3.3047e-06
0.000171831
3.19353e-06
0.000172915
3.03217e-06
0.00017409
2.81758e-06
2.55021e-06
0.000175331
0.000196006
1.38294e-06
0.000195887
3.12577e-06
0.000195632
3.77855e-06
0.000195298
3.53236e-06
0.000194947
3.05412e-06
0.000194612
2.70693e-06
0.000194302
2.53639e-06
0.000194012
2.4761e-06
0.000193736
2.46434e-06
0.000193469
2.46798e-06
0.000193207
2.47397e-06
0.000192949
2.47869e-06
0.000192693
2.48198e-06
0.000192437
2.48459e-06
0.000192182
2.4873e-06
0.000191926
2.4907e-06
0.00019167
2.49526e-06
0.000191412
2.5013e-06
0.000191153
2.50899e-06
0.000190893
2.51843e-06
0.000190631
2.5297e-06
0.000190366
2.54278e-06
0.0001901
2.5576e-06
0.000189831
2.57402e-06
0.000189561
2.59189e-06
0.000189288
2.61098e-06
0.000189013
2.63103e-06
0.000188737
2.65175e-06
0.000188459
2.67285e-06
0.000188179
2.69404e-06
0.000187898
2.71505e-06
0.000187615
2.73566e-06
0.000187331
2.75563e-06
0.000187047
2.77479e-06
0.000186762
2.79301e-06
0.000186476
2.81016e-06
0.00018619
2.82615e-06
0.000185904
2.84093e-06
0.000185618
2.85445e-06
0.000185333
2.86668e-06
0.000185049
2.87765e-06
0.000184766
2.88735e-06
0.000184484
2.89583e-06
0.000184204
2.90312e-06
0.000183927
2.90929e-06
0.000183652
2.91439e-06
0.00018338
2.91853e-06
0.000183111
2.92181e-06
0.000182847
2.92433e-06
0.000182587
2.92624e-06
0.000182332
2.92766e-06
0.000182084
2.92876e-06
0.000181843
2.92969e-06
0.000181609
2.93064e-06
0.000181384
2.93178e-06
0.000181169
2.9333e-06
0.000180966
2.93539e-06
0.000180776
2.93822e-06
0.000180601
2.94195e-06
0.000180443
2.94671e-06
0.000180304
2.95259e-06
0.000180188
2.9596e-06
0.000180097
2.96765e-06
0.000180036
2.9765e-06
0.000180009
2.98573e-06
0.000180021
2.99468e-06
0.000180077
3.0024e-06
0.000180184
3.00754e-06
0.000180348
3.00835e-06
0.000180576
3.00254e-06
0.000180875
2.98731e-06
0.000181252
2.95922e-06
0.000181713
2.9143e-06
0.000182265
2.84806e-06
0.000182909
2.7557e-06
0.000183648
2.63242e-06
0.000184479
2.47386e-06
0.000185396
2.27675e-06
0.000186388
2.03961e-06
0.000187443
1.76341e-06
1.45196e-06
0.000188541
0.000209742
1.38004e-06
0.00020964
3.22805e-06
0.000209401
4.01749e-06
0.000209075
3.8587e-06
0.000208722
3.40692e-06
0.000208379
3.04988e-06
0.000208058
2.85808e-06
0.000207756
2.77801e-06
0.000207468
2.75159e-06
0.000207191
2.74539e-06
0.00020692
2.74507e-06
0.000206653
2.74591e-06
0.000206388
2.74694e-06
0.000206124
2.74841e-06
0.000205861
2.75078e-06
0.000205597
2.75448e-06
0.000205332
2.75983e-06
0.000205067
2.76705e-06
0.000204799
2.77623e-06
0.00020453
2.78742e-06
0.00020426
2.8006e-06
0.000203987
2.81572e-06
0.000203712
2.83262e-06
0.000203435
2.85115e-06
0.000203155
2.87107e-06
0.000202874
2.89213e-06
0.000202591
2.91403e-06
0.000202307
2.93646e-06
0.00020202
2.9591e-06
0.000201733
2.98166e-06
0.000201444
3.00384e-06
0.000201154
3.0254e-06
0.000200864
3.0461e-06
0.000200573
3.06577e-06
0.000200282
3.08424e-06
0.00019999
3.10138e-06
0.000199699
3.11709e-06
0.000199409
3.13128e-06
0.00019912
3.1439e-06
0.000198831
3.15491e-06
0.000198545
3.16428e-06
0.00019826
3.17202e-06
0.000197978
3.17811e-06
0.000197698
3.18258e-06
0.000197422
3.18544e-06
0.00019715
3.18672e-06
0.000196882
3.18648e-06
0.000196619
3.18476e-06
0.000196362
3.18161e-06
0.000196111
3.17709e-06
0.000195867
3.17126e-06
0.000195632
3.16418e-06
0.000195406
3.15592e-06
0.00019519
3.14651e-06
0.000194986
3.136e-06
0.000194795
3.12441e-06
0.000194618
3.11175e-06
0.000194459
3.09798e-06
0.000194317
3.08302e-06
0.000194197
3.06674e-06
0.000194101
3.04893e-06
0.000194031
3.02928e-06
0.000193992
3.00735e-06
0.000193986
2.98256e-06
0.000194017
2.95411e-06
0.000194091
2.92102e-06
0.000194211
2.88202e-06
0.000194383
2.83556e-06
0.000194612
2.77977e-06
0.000194902
2.71245e-06
0.000195258
2.63107e-06
0.000195685
2.5328e-06
0.000196184
2.41457e-06
0.000196759
2.27317e-06
0.00019741
2.10548e-06
0.000198133
1.90872e-06
0.000198926
1.68088e-06
0.000199782
1.42116e-06
0.000200691
1.13059e-06
0.000201642
8.12131e-07
4.71447e-07
0.000202623
0.000224436
1.37418e-06
0.000224347
3.31781e-06
0.000224122
4.24187e-06
0.000223805
4.1757e-06
0.000223454
3.7582e-06
0.000223106
3.39772e-06
0.000222776
3.18831e-06
0.000222464
3.08985e-06
0.000222167
3.04888e-06
0.00022188
3.03241e-06
0.0002216
3.02527e-06
0.000221324
3.02176e-06
0.000221051
3.0202e-06
0.000220779
3.02032e-06
0.000220508
3.02227e-06
0.000220236
3.02624e-06
0.000219963
3.03239e-06
0.00021969
3.04083e-06
0.000219414
3.05155e-06
0.000219137
3.06451e-06
0.000218858
3.07964e-06
0.000218577
3.09678e-06
0.000218294
3.11574e-06
0.000218009
3.13629e-06
0.000217722
3.15815e-06
0.000217433
3.18102e-06
0.000217142
3.20458e-06
0.00021685
3.22849e-06
0.000216557
3.2524e-06
0.000216263
3.27601e-06
0.000215968
3.299e-06
0.000215672
3.32112e-06
0.000215376
3.34213e-06
0.00021508
3.36181e-06
0.000214784
3.38001e-06
0.000214489
3.39656e-06
0.000214195
3.41134e-06
0.000213902
3.42426e-06
0.00021361
3.43523e-06
0.000213321
3.44418e-06
0.000213034
3.45106e-06
0.000212751
3.45584e-06
0.00021247
3.45848e-06
0.000212194
3.45896e-06
0.000211922
3.45725e-06
0.000211655
3.45334e-06
0.000211395
3.44721e-06
0.000211141
3.43886e-06
0.000210894
3.42827e-06
0.000210656
3.41541e-06
0.000210427
3.40025e-06
0.000210208
3.38275e-06
0.000210001
3.36286e-06
0.000209807
3.34049e-06
0.000209628
3.31555e-06
0.000209464
3.2879e-06
0.000209319
3.25737e-06
0.000209193
3.22375e-06
0.000209089
3.18676e-06
0.00020901
3.14604e-06
0.000208958
3.10117e-06
0.000208935
3.05162e-06
0.000208946
2.99671e-06
0.000208993
2.93567e-06
0.000209079
2.86754e-06
0.000209209
2.7912e-06
0.000209386
2.70534e-06
0.000209613
2.60847e-06
0.000209894
2.49888e-06
0.000210232
2.37473e-06
0.000210629
2.234e-06
0.000211087
2.0746e-06
0.000211607
1.89439e-06
0.000212189
1.69135e-06
0.000212831
1.46372e-06
0.000213529
1.21021e-06
0.00021428
9.30393e-07
0.000215076
6.25e-07
0.00021591
2.96551e-07
0.000216773
-5.06136e-08
-4.10205e-07
0.000217654
0.000240157
1.3679e-06
0.000240076
3.39907e-06
0.000239864
4.4537e-06
0.000239557
4.48269e-06
0.00023921
4.10543e-06
0.00023886
3.74743e-06
0.000238524
3.52443e-06
0.000238205
3.40961e-06
0.000237899
3.3548e-06
0.000237603
3.32811e-06
0.000237314
3.31393e-06
0.00023703
3.30581e-06
0.000236749
3.30143e-06
0.00023647
3.30005e-06
0.00023619
3.30148e-06
0.000235911
3.30568e-06
0.000235631
3.31262e-06
0.000235349
3.32227e-06
0.000235066
3.33453e-06
0.000234782
3.34925e-06
0.000234495
3.36626e-06
0.000234206
3.38535e-06
0.000233916
3.40625e-06
0.000233624
3.42867e-06
0.00023333
3.45228e-06
0.000233034
3.47673e-06
0.000232737
3.50168e-06
0.000232438
3.52675e-06
0.000232139
3.55158e-06
0.000231839
3.57584e-06
0.000231539
3.59921e-06
0.000231239
3.62141e-06
0.000230939
3.64219e-06
0.000230639
3.66132e-06
0.000230341
3.6786e-06
0.000230044
3.69387e-06
0.000229748
3.70699e-06
0.000229454
3.71781e-06
0.000229163
3.72624e-06
0.000228875
3.73217e-06
0.000228591
3.73553e-06
0.000228311
3.73623e-06
0.000228035
3.73421e-06
0.000227764
3.7294e-06
0.0002275
3.72172e-06
0.000227242
3.7111e-06
0.000226992
3.69748e-06
0.00022675
3.68075e-06
0.000226518
3.66083e-06
0.000226295
3.63762e-06
0.000226085
3.61097e-06
0.000225887
3.58076e-06
0.000225703
3.54682e-06
0.000225534
3.50895e-06
0.000225383
3.46692e-06
0.00022525
3.42047e-06
0.000225138
3.3693e-06
0.000225049
3.31303e-06
0.000224985
3.25126e-06
0.000224947
3.18348e-06
0.000224939
3.10914e-06
0.000224963
3.02757e-06
0.000225022
2.93802e-06
0.000225118
2.83965e-06
0.000225254
2.73148e-06
0.000225433
2.61246e-06
0.000225657
2.48139e-06
0.000225928
2.33701e-06
0.000226249
2.17797e-06
0.000226621
2.00287e-06
0.000227045
1.81028e-06
0.000227521
1.59882e-06
0.000228048
1.36721e-06
0.000228625
1.11437e-06
0.000229249
8.39526e-07
0.000229917
5.42453e-07
0.000230623
2.23851e-07
0.000231363
-1.14514e-07
0.000232129
-4.69344e-07
0.000232914
-8.35829e-07
-1.20771e-06
0.000233711
0.000256977
1.36304e-06
0.000256901
3.47515e-06
0.0002567
4.65506e-06
0.000256403
4.77954e-06
0.000256062
4.44676e-06
0.000255713
4.09643e-06
0.000255373
3.86393e-06
0.000255048
3.73523e-06
0.000254735
3.6678e-06
0.000254432
3.63133e-06
0.000254135