/*--------------------------------*- C++ -*----------------------------------*\
| =========                 |                                                 |
| \\      /  F ield         | OpenFOAM: The Open Source CFD Toolbox           |
|  \\    /   O peration     | Version:  4.1                                   |
|   \\  /    A nd           | Web:      www.OpenFOAM.org                      |
|    \\/     M anipulation  |                                                 |
\*---------------------------------------------------------------------------*/
FoamFile
{
    version     2.0;
    format      ascii;
    class       volVectorField;
    location    "0.2";
    object      U;
}
// * * * * * * * * * * * * * * * * * * * * * * * * * * * * * * * * * * * * * //

dimensions      [0 1 -1 0 0 0 0];

internalField   nonuniform List<vector> 
12013
(
(0.0999328 2.0469e-05 0)
(0.0996257 3.38762e-05 0)
(0.0992462 3.17359e-05 0)
(0.0989715 2.24273e-05 0)
(0.0987953 1.56149e-05 0)
(0.0986634 1.33331e-05 0)
(0.0985375 1.38065e-05 0)
(0.0984024 1.51962e-05 0)
(0.0982563 1.65796e-05 0)
(0.0981019 1.76918e-05 0)
(0.0979422 1.85456e-05 0)
(0.0977793 1.9219e-05 0)
(0.0976145 1.97816e-05 0)
(0.0974487 2.02805e-05 0)
(0.0972823 2.07451e-05 0)
(0.0971157 2.11938e-05 0)
(0.0969489 2.16392e-05 0)
(0.096782 2.20908e-05 0)
(0.0966151 2.25559e-05 0)
(0.096448 2.30407e-05 0)
(0.0962806 2.35506e-05 0)
(0.0961129 2.4091e-05 0)
(0.0959447 2.46666e-05 0)
(0.0957758 2.52811e-05 0)
(0.095606 2.59369e-05 0)
(0.0954352 2.66351e-05 0)
(0.0952633 2.73754e-05 0)
(0.09509 2.8157e-05 0)
(0.0949153 2.89769e-05 0)
(0.094739 2.9833e-05 0)
(0.0945611 3.07221e-05 0)
(0.0943815 3.16411e-05 0)
(0.0942003 3.25874e-05 0)
(0.0940173 3.3559e-05 0)
(0.0938327 3.45534e-05 0)
(0.0936464 3.55686e-05 0)
(0.0934585 3.66039e-05 0)
(0.0932689 3.76601e-05 0)
(0.0930779 3.87374e-05 0)
(0.0928853 3.98368e-05 0)
(0.0926912 4.09599e-05 0)
(0.0924956 4.21089e-05 0)
(0.0922985 4.32866e-05 0)
(0.0921 4.44968e-05 0)
(0.0919 4.57448e-05 0)
(0.0916985 4.70371e-05 0)
(0.0914954 4.83815e-05 0)
(0.0912906 4.97877e-05 0)
(0.091084 5.12668e-05 0)
(0.0908755 5.28331e-05 0)
(0.0906648 5.45032e-05 0)
(0.0904516 5.62976e-05 0)
(0.0902357 5.82414e-05 0)
(0.0900166 6.03639e-05 0)
(0.0897938 6.27018e-05 0)
(0.0895668 6.52994e-05 0)
(0.0893347 6.82117e-05 0)
(0.0890968 7.15073e-05 0)
(0.088852 7.52717e-05 0)
(0.0885989 7.9614e-05 0)
(0.0883359 8.46726e-05 0)
(0.0880611 9.06268e-05 0)
(0.0877719 9.77077e-05 0)
(0.0874653 0.00010622 0)
(0.0871374 0.000116568 0)
(0.0867831 0.000129293 0)
(0.0863962 0.000145137 0)
(0.0859684 0.000165126 0)
(0.0854886 0.000190701 0)
(0.0849422 0.000223933 0)
(0.0843092 0.000267849 0)
(0.0835622 0.000326962 0)
(0.0826621 0.000408145 0)
(0.0815531 0.000522077 0)
(0.0801534 0.00068567 0)
(0.0783412 0.00092617 0)
(0.0759321 0.00128821 0)
(0.0726302 0.0018481 0)
(0.0679711 0.002758 0)
(0.0613967 0.00443716 0)
(0.0539273 0.00875941 0)
(0.0999391 6.21433e-05 0)
(0.0996393 0.000103417 0)
(0.0992651 9.7208e-05 0)
(0.0989908 6.89355e-05 0)
(0.0988123 4.81426e-05 0)
(0.098678 4.11234e-05 0)
(0.0985502 4.25113e-05 0)
(0.0984142 4.67112e-05 0)
(0.0982678 5.09091e-05 0)
(0.0981135 5.42914e-05 0)
(0.0979541 5.68933e-05 0)
(0.0977917 5.89487e-05 0)
(0.0976275 6.06697e-05 0)
(0.0974623 6.21968e-05 0)
(0.0972965 6.36201e-05 0)
(0.0971305 6.4996e-05 0)
(0.0969643 6.63632e-05 0)
(0.096798 6.77493e-05 0)
(0.0966316 6.91772e-05 0)
(0.0964651 7.06655e-05 0)
(0.0962983 7.22319e-05 0)
(0.0961311 7.38911e-05 0)
(0.0959634 7.56583e-05 0)
(0.095795 7.75447e-05 0)
(0.0956258 7.95577e-05 0)
(0.0954555 8.17002e-05 0)
(0.095284 8.39719e-05 0)
(0.0951112 8.63693e-05 0)
(0.094937 8.88848e-05 0)
(0.0947612 9.151e-05 0)
(0.0945838 9.42361e-05 0)
(0.0944048 9.70534e-05 0)
(0.0942241 9.9955e-05 0)
(0.0940417 0.000102933 0)
(0.0938576 0.000105981 0)
(0.0936719 0.000109092 0)
(0.0934846 0.000112266 0)
(0.0932957 0.000115502 0)
(0.0931052 0.000118803 0)
(0.0929133 0.000122171 0)
(0.0927199 0.000125612 0)
(0.0925251 0.000129131 0)
(0.0923288 0.000132738 0)
(0.092131 0.000136444 0)
(0.0919319 0.000140265 0)
(0.0917312 0.000144221 0)
(0.091529 0.000148336 0)
(0.0913251 0.000152638 0)
(0.0911195 0.000157163 0)
(0.090912 0.000161953 0)
(0.0907024 0.000167059 0)
(0.0904905 0.000172543 0)
(0.0902758 0.000178481 0)
(0.0900581 0.000184963 0)
(0.0898369 0.000192098 0)
(0.0896115 0.000200023 0)
(0.0893813 0.000208903 0)
(0.0891455 0.000218946 0)
(0.088903 0.000230411 0)
(0.0886525 0.000243625 0)
(0.0883926 0.000259007 0)
(0.0881213 0.000277094 0)
(0.0878364 0.00029858 0)
(0.0875348 0.000324376 0)
(0.0872131 0.000355684 0)
(0.0868666 0.000394117 0)
(0.0864895 0.000441859 0)
(0.0860743 0.000501918 0)
(0.0856113 0.0005785 0)
(0.0850878 0.000677582 0)
(0.0844868 0.000807806 0)
(0.0837856 0.000981893 0)
(0.0829535 0.00121889 0)
(0.0819483 0.00154775 0)
(0.080712 0.00201301 0)
(0.079166 0.00268353 0)
(0.0772051 0.00366484 0)
(0.0746876 0.00511537 0)
(0.0714535 0.00726629 0)
(0.0675489 0.0103827 0)
(0.0642393 0.0143322 0)
(0.0999468 0.000103933 0)
(0.0996662 0.000175355 0)
(0.0993061 0.000166208 0)
(0.0990329 0.000119061 0)
(0.0988492 8.38564e-05 0)
(0.098709 7.16821e-05 0)
(0.0985772 7.37467e-05 0)
(0.0984391 8.0668e-05 0)
(0.0982922 8.76765e-05 0)
(0.0981382 9.33634e-05 0)
(0.0979796 9.77623e-05 0)
(0.0978182 0.000101254 0)
(0.0976551 0.000104188 0)
(0.0974912 0.0001068 0)
(0.0973267 0.00010924 0)
(0.097162 0.000111602 0)
(0.0969971 0.000113953 0)
(0.0968321 0.000116339 0)
(0.096667 0.000118798 0)
(0.0965016 0.000121363 0)
(0.096336 0.000124062 0)
(0.0961699 0.000126922 0)
(0.0960033 0.000129966 0)
(0.095836 0.000133214 0)
(0.0956678 0.000136679 0)
(0.0954986 0.000140364 0)
(0.0953282 0.00014427 0)
(0.0951564 0.00014839 0)
(0.0949832 0.000152711 0)
(0.0948085 0.000157219 0)
(0.0946322 0.000161899 0)
(0.0944543 0.000166734 0)
(0.0942747 0.000171712 0)
(0.0940934 0.000176821 0)
(0.0939106 0.000182047 0)
(0.0937261 0.000187382 0)
(0.0935401 0.000192823 0)
(0.0933525 0.00019837 0)
(0.0931634 0.000204026 0)
(0.0929729 0.000209797 0)
(0.092781 0.000215689 0)
(0.0925877 0.000221715 0)
(0.092393 0.000227888 0)
(0.0921969 0.00023423 0)
(0.0919994 0.000240765 0)
(0.0918006 0.000247528 0)
(0.0916002 0.000254559 0)
(0.0913984 0.000261907 0)
(0.0911949 0.00026963 0)
(0.0909896 0.000277799 0)
(0.0907823 0.000286502 0)
(0.0905728 0.000295842 0)
(0.0903608 0.000305944 0)
(0.090146 0.000316963 0)
(0.0899279 0.000329082 0)
(0.0897059 0.000342525 0)
(0.0894795 0.000357572 0)
(0.0892478 0.000374568 0)
(0.08901 0.000393943 0)
(0.0887648 0.000416241 0)
(0.0885109 0.000442153 0)
(0.0882467 0.000472559 0)
(0.0879699 0.000508598 0)
(0.0876781 0.000551748 0)
(0.0873681 0.000603951 0)
(0.087036 0.000667786 0)
(0.086677 0.000746713 0)
(0.0862848 0.000845435 0)
(0.085852 0.000970429 0)
(0.0853686 0.00113073 0)
(0.0848227 0.00133911 0)
(0.0841988 0.00161385 0)
(0.0834781 0.00198141 0)
(0.0826375 0.00248028 0)
(0.0816507 0.00316646 0)
(0.0804912 0.00412004 0)
(0.0791402 0.00545087 0)
(0.0776028 0.00729644 0)
(0.0759503 0.00979671 0)
(0.0744484 0.0129716 0)
(0.0737898 0.0162378 0)
(0.0999562 0.000143779 0)
(0.0997054 0.000247481 0)
(0.0993676 0.000237755 0)
(0.0990972 0.000173273 0)
(0.0989059 0.000123789 0)
(0.0987568 0.000105946 0)
(0.0986189 0.000108145 0)
(0.0984778 0.000117428 0)
(0.09833 0.000127065 0)
(0.0981765 0.000134988 0)
(0.0980192 0.000141177 0)
(0.0978594 0.000146129 0)
(0.0976983 0.000150315 0)
(0.0975363 0.000154059 0)
(0.0973739 0.000157569 0)
(0.0972112 0.000160978 0)
(0.0970483 0.000164377 0)
(0.0968853 0.000167832 0)
(0.0967221 0.000171398 0)
(0.0965586 0.000175119 0)
(0.0963948 0.000179036 0)
(0.0962306 0.000183184 0)
(0.0960657 0.000187599 0)
(0.0959 0.000192305 0)
(0.0957335 0.000197322 0)
(0.0955659 0.000202654 0)
(0.095397 0.000208299 0)
(0.0952269 0.000214249 0)
(0.0950553 0.000220485 0)
(0.0948823 0.000226988 0)
(0.0947076 0.000233734 0)
(0.0945314 0.000240702 0)
(0.0943536 0.000247872 0)
(0.0941742 0.000255227 0)
(0.0939932 0.000262749 0)
(0.0938107 0.000270427 0)
(0.0936266 0.000278254 0)
(0.0934411 0.00028623 0)
(0.0932542 0.000294361 0)
(0.0930659 0.000302652 0)
(0.0928763 0.000311115 0)
(0.0926854 0.000319765 0)
(0.0924932 0.000328623 0)
(0.0922997 0.000337717 0)
(0.0921049 0.000347083 0)
(0.0919088 0.000356768 0)
(0.0917115 0.000366829 0)
(0.0915127 0.000377334 0)
(0.0913124 0.000388364 0)
(0.0911105 0.00040002 0)
(0.0909069 0.000412422 0)
(0.0907013 0.000425715 0)
(0.0904935 0.000440076 0)
(0.0902832 0.000455715 0)
(0.0900699 0.000472888 0)
(0.0898532 0.000491908 0)
(0.0896327 0.000513159 0)
(0.0894075 0.000537116 0)
(0.0891769 0.00056437 0)
(0.0889399 0.000595665 0)
(0.0886953 0.000631937 0)
(0.0884418 0.000674376 0)
(0.0881776 0.000724508 0)
(0.0879006 0.000784295 0)
(0.0876084 0.00085629 0)
(0.087298 0.000943835 0)
(0.0869657 0.00105135 0)
(0.0866074 0.00118475 0)
(0.086218 0.00135196 0)
(0.0857916 0.00156379 0)
(0.0853216 0.00183503 0)
(0.0848013 0.00218601 0)
(0.0842242 0.00264482 0)
(0.0835862 0.00324994 0)
(0.082889 0.0040532 0)
(0.0821468 0.00512151 0)
(0.0813972 0.00653348 0)
(0.0807179 0.00836245 0)
(0.0802502 0.0106301 0)
(0.080224 0.0131918 0)
(0.0809174 0.0154875 0)
(0.0999667 0.000179847 0)
(0.099753 0.00031728 0)
(0.0994448 0.000310658 0)
(0.0991793 0.000231882 0)
(0.0989795 0.000168922 0)
(0.0988198 0.000144861 0)
(0.0986744 0.000146361 0)
(0.0985296 0.000157366 0)
(0.0983808 0.000169253 0)
(0.0982281 0.000179227 0)
(0.0980725 0.000187132 0)
(0.097915 0.00019353 0)
(0.0977563 0.000198987 0)
(0.097597 0.000203899 0)
(0.0974373 0.000208529 0)
(0.0972774 0.000213042 0)
(0.0971172 0.000217557 0)
(0.0969569 0.000222157 0)
(0.0967963 0.000226911 0)
(0.0966354 0.000231876 0)
(0.0964741 0.000237104 0)
(0.0963122 0.00024264 0)
(0.0961496 0.000248527 0)
(0.0959862 0.000254797 0)
(0.0958219 0.000261471 0)
(0.0956565 0.000268557 0)
(0.0954898 0.00027605 0)
(0.0953219 0.000283939 0)
(0.0951525 0.000292199 0)
(0.0949816 0.000300805 0)
(0.0948093 0.000309726 0)
(0.0946354 0.000318934 0)
(0.09446 0.000328404 0)
(0.094283 0.000338112 0)
(0.0941046 0.000348038 0)
(0.0939247 0.000358163 0)
(0.0937434 0.000368482 0)
(0.0935607 0.000378992 0)
(0.0933767 0.000389699 0)
(0.0931915 0.000400612 0)
(0.093005 0.000411743 0)
(0.0928173 0.000423113 0)
(0.0926285 0.000434748 0)
(0.0924385 0.000446683 0)
(0.0922474 0.000458965 0)
(0.0920552 0.000471652 0)
(0.0918618 0.000484816 0)
(0.0916672 0.000498544 0)
(0.0914714 0.000512938 0)
(0.0912742 0.000528125 0)
(0.0910755 0.000544257 0)
(0.0908752 0.000561517 0)
(0.0906731 0.000580125 0)
(0.0904689 0.000600348 0)
(0.0902623 0.000622506 0)
(0.0900529 0.000646988 0)
(0.0898403 0.000674273 0)
(0.089624 0.00070495 0)
(0.0894033 0.000739746 0)
(0.0891775 0.000779571 0)
(0.0889456 0.000825564 0)
(0.0887067 0.00087916 0)
(0.0884594 0.000942175 0)
(0.0882024 0.00101692 0)
(0.087934 0.00110637 0)
(0.0876524 0.00121432 0)
(0.0873553 0.00134572 0)
(0.0870408 0.00150703 0)
(0.0867065 0.00170665 0)
(0.0863506 0.00195564 0)
(0.0859722 0.00226854 0)
(0.085572 0.00266434 0)
(0.0851541 0.00316771 0)
(0.0847285 0.00381001 0)
(0.0843151 0.00462955 0)
(0.0839495 0.00566939 0)
(0.0836905 0.00696954 0)
(0.0836281 0.00854759 0)
(0.0838867 0.0103597 0)
(0.0846082 0.0122339 0)
(0.0858773 0.0137857 0)
(0.0999773 0.000210609 0)
(0.0998041 0.00038244 0)
(0.09953 0.000383628 0)
(0.0992725 0.000294874 0)
(0.0990651 0.000219934 0)
(0.0988947 0.000189189 0)
(0.0987413 0.000188962 0)
(0.0985925 0.000200815 0)
(0.0984429 0.000214396 0)
(0.0982912 0.000226119 0)
(0.0981377 0.0002356 0)
(0.0979829 0.000243389 0)
(0.0978274 0.000250111 0)
(0.0976713 0.000256217 0)
(0.097515 0.000262009 0)
(0.0973584 0.000267685 0)
(0.0972016 0.000273385 0)
(0.0970445 0.000279209 0)
(0.0968872 0.00028524 0)
(0.0967294 0.000291545 0)
(0.0965711 0.000298188 0)
(0.0964122 0.00030522 0)
(0.0962525 0.000312689 0)
(0.0960919 0.000320634 0)
(0.0959303 0.000329079 0)
(0.0957676 0.000338031 0)
(0.0956036 0.000347483 0)
(0.0954384 0.000357419 0)
(0.0952718 0.00036781 0)
(0.0951037 0.000378623 0)
(0.0949342 0.000389822 0)
(0.0947632 0.00040137 0)
(0.0945908 0.000413237 0)
(0.0944169 0.000425394 0)
(0.0942416 0.000437815 0)
(0.094065 0.00045048 0)
(0.0938871 0.000463379 0)
(0.093708 0.000476509 0)
(0.0935276 0.000489874 0)
(0.0933461 0.000503485 0)
(0.0931636 0.000517357 0)
(0.09298 0.000531515 0)
(0.0927954 0.000545988 0)
(0.0926098 0.000560819 0)
(0.0924233 0.000576062 0)
(0.0922359 0.000591787 0)
(0.0920475 0.000608076 0)
(0.0918582 0.000625033 0)
(0.091668 0.00064278 0)
(0.0914767 0.000661464 0)
(0.0912843 0.000681265 0)
(0.0910907 0.000702397 0)
(0.0908957 0.000725118 0)
(0.0906992 0.000749739 0)
(0.090501 0.000776633 0)
(0.0903009 0.000806251 0)
(0.0900984 0.000839147 0)
(0.0898933 0.000875992 0)
(0.0896851 0.000917619 0)
(0.0894733 0.000965053 0)
(0.0892575 0.00101957 0)
(0.0890369 0.00108275 0)
(0.0888108 0.00115658 0)
(0.0885786 0.00124354 0)
(0.0883395 0.00134675 0)
(0.0880929 0.00147014 0)
(0.0878382 0.00161867 0)
(0.0875752 0.00179861 0)
(0.0873047 0.00201786 0)
(0.0870281 0.00228635 0)
(0.0867489 0.00261646 0)
(0.0864737 0.00302339 0)
(0.0862133 0.00352537 0)
(0.0859854 0.0041434 0)
(0.0858171 0.00489976 0)
(0.0857489 0.00581443 0)
(0.085837 0.00689722 0)
(0.0861549 0.00813351 0)
(0.0867859 0.00946138 0)
(0.0878014 0.010743 0)
(0.0892093 0.0117477 0)
(0.0999869 0.000235172 0)
(0.0998532 0.000441273 0)
(0.099615 0.000455421 0)
(0.0993689 0.000361833 0)
(0.0991566 0.000277038 0)
(0.0989769 0.000239368 0)
(0.0988164 0.000236347 0)
(0.0986639 0.000248045 0)
(0.0985136 0.000262637 0)
(0.0983632 0.000275715 0)
(0.0982122 0.000286565 0)
(0.0980606 0.000295654 0)
(0.0979086 0.000303613 0)
(0.0977563 0.000310922 0)
(0.0976038 0.000317913 0)
(0.097451 0.000324807 0)
(0.0972981 0.000331764 0)
(0.0971448 0.000338897 0)
(0.0969911 0.000346299 0)
(0.0968369 0.000354049 0)
(0.0966822 0.000362217 0)
(0.0965266 0.000370859 0)
(0.0963703 0.000380029 0)
(0.096213 0.000389768 0)
(0.0960546 0.000400101 0)
(0.0958951 0.000411034 0)
(0.0957343 0.000422556 0)
(0.0955722 0.000434646 0)
(0.0954088 0.00044727 0)
(0.095244 0.000460389 0)
(0.0950778 0.000473958 0)
(0.0949103 0.000487936 0)
(0.0947414 0.000502285 0)
(0.0945711 0.000516971 0)
(0.0943996 0.000531964 0)
(0.0942269 0.000547241 0)
(0.094053 0.000562787 0)
(0.093878 0.000578599 0)
(0.093702 0.00059468 0)
(0.093525 0.000611039 0)
(0.0933471 0.000627694 0)
(0.0931683 0.000644672 0)
(0.0929887 0.000662007 0)
(0.0928084 0.000679745 0)
(0.0926274 0.000697947 0)
(0.0924457 0.000716689 0)
(0.0922633 0.000736065 0)
(0.0920803 0.000756187 0)
(0.0918967 0.000777194 0)
(0.0917125 0.000799247 0)
(0.0915276 0.000822546 0)
(0.091342 0.000847327 0)
(0.0911556 0.000873876 0)
(0.0909685 0.000902533 0)
(0.0907804 0.000933706 0)
(0.0905912 0.000967889 0)
(0.0904009 0.00100568 0)
(0.0902092 0.00104779 0)
(0.0900159 0.00109512 0)
(0.089821 0.00114873 0)
(0.0896241 0.00120996 0)
(0.0894252 0.00128043 0)
(0.089224 0.00136212 0)
(0.0890208 0.00145748 0)
(0.0888155 0.00156952 0)
(0.0886087 0.00170191 0)
(0.0884013 0.00185914 0)
(0.0881949 0.00204668 0)
(0.0879923 0.0022711 0)
(0.0877977 0.00254021 0)
(0.0876175 0.00286312 0)
(0.0874612 0.00325008 0)
(0.0873426 0.00371211 0)
(0.0872812 0.00425999 0)
(0.0873036 0.00490235 0)
(0.0874445 0.00564234 0)
(0.0877473 0.00647206 0)
(0.0882609 0.00736449 0)
(0.089032 0.00826332 0)
(0.0900886 0.00907454 0)
(0.0914134 0.00966941 0)
(0.0999946 0.000253437 0)
(0.0998961 0.000492919 0)
(0.0996932 0.000524977 0)
(0.0994614 0.000431959 0)
(0.0992481 0.000339918 0)
(0.099062 0.000295434 0)
(0.0988959 0.000288688 0)
(0.0987407 0.000299227 0)
(0.0985902 0.000314093 0)
(0.0984415 0.00032807 0)
(0.0982932 0.000340035 0)
(0.0981451 0.000350298 0)
(0.097997 0.000359443 0)
(0.0978487 0.000367954 0)
(0.0977004 0.000376174 0)
(0.0975518 0.000384339 0)
(0.0974031 0.000392624 0)
(0.0972539 0.000401152 0)
(0.0971043 0.000410025 0)
(0.0969541 0.000419328 0)
(0.0968032 0.000429135 0)
(0.0966514 0.000439509 0)
(0.0964988 0.000450501 0)
(0.0963451 0.000462155 0)
(0.0961903 0.000474494 0)
(0.0960344 0.000487522 0)
(0.0958772 0.000501222 0)
(0.0957187 0.000515569 0)
(0.0955589 0.000530522 0)
(0.0953978 0.000546035 0)
(0.0952355 0.000562057 0)
(0.0950718 0.00057854 0)
(0.0949069 0.000595439 0)
(0.0947409 0.000612716 0)
(0.0945736 0.000630337 0)
(0.0944054 0.000648275 0)
(0.0942361 0.000666513 0)
(0.0940658 0.000685042 0)
(0.0938948 0.000703864 0)
(0.0937229 0.000722988 0)
(0.0935503 0.000742433 0)
(0.093377 0.000762224 0)
(0.0932032 0.000782399 0)
(0.0930289 0.000803006 0)
(0.0928541 0.000824108 0)
(0.092679 0.000845784 0)
(0.0925036 0.000868133 0)
(0.0923279 0.000891273 0)
(0.0921519 0.00091535 0)
(0.0919758 0.000940533 0)
(0.0917996 0.000967032 0)
(0.0916233 0.000995093 0)
(0.0914469 0.00102501 0)
(0.0912705 0.00105714 0)
(0.091094 0.00109191 0)
(0.0909176 0.00112981 0)
(0.0907412 0.00117145 0)
(0.0905649 0.00121756 0)
(0.0903889 0.00126901 0)
(0.0902131 0.00132686 0)
(0.0900378 0.00139239 0)
(0.0898633 0.00146713 0)
(0.0896901 0.00155292 0)
(0.0895188 0.00165197 0)
(0.0893504 0.0017669 0)
(0.0891863 0.00190081 0)
(0.0890287 0.00205736 0)
(0.0888804 0.00224074 0)
(0.0887456 0.00245572 0)
(0.0886299 0.00270755 0)
(0.088541 0.00300175 0)
(0.0884892 0.00334375 0)
(0.0884881 0.00373819 0)
(0.0885551 0.00418789 0)
(0.0887117 0.00469219 0)
(0.0889834 0.00524469 0)
(0.0893985 0.00583018 0)
(0.0899848 0.00642116 0)
(0.0907637 0.0069748 0)
(0.0917406 0.00743258 0)
(0.0928939 0.0077264 0)
(0.1 0.000265961 0)
(0.0999307 0.000537271 0)
(0.0997603 0.000591482 0)
(0.0995452 0.000504201 0)
(0.099335 0.000407809 0)
(0.0991462 0.000357022 0)
(0.0989768 0.000345889 0)
(0.09882 0.000354385 0)
(0.09867 0.000368809 0)
(0.0985233 0.00038321 0)
(0.0983781 0.00039601 0)
(0.0982337 0.000407295 0)
(0.0980896 0.00041756 0)
(0.0979457 0.000427258 0)
(0.0978017 0.00043673 0)
(0.0976576 0.000446217 0)
(0.0975133 0.000455901 0)
(0.0973685 0.000465912 0)
(0.0972232 0.000476355 0)
(0.0970772 0.000487321 0)
(0.0969304 0.000498885 0)
(0.0967828 0.00051111 0)
(0.0966341 0.000524047 0)
(0.0964844 0.000537736 0)
(0.0963335 0.000552197 0)
(0.0961815 0.000567428 0)
(0.0960282 0.000583409 0)
(0.0958737 0.000600106 0)
(0.095718 0.000617473 0)
(0.095561 0.000635456 0)
(0.0954029 0.000653998 0)
(0.0952436 0.000673046 0)
(0.0950831 0.000692547 0)
(0.0949217 0.000712457 0)
(0.0947593 0.00073274 0)
(0.0945959 0.000753363 0)
(0.0944318 0.000774306 0)
(0.0942669 0.000795558 0)
(0.0941013 0.000817115 0)
(0.0939351 0.000838985 0)
(0.0937685 0.000861183 0)
(0.0936014 0.000883735 0)
(0.0934341 0.000906677 0)
(0.0932665 0.000930056 0)
(0.0930988 0.000953932 0)
(0.092931 0.000978383 0)
(0.0927634 0.00100351 0)
(0.0925958 0.00102942 0)
(0.0924286 0.00105627 0)
(0.0922616 0.00108422 0)
(0.0920952 0.00111347 0)
(0.0919293 0.00114428 0)
(0.0917641 0.00117692 0)
(0.0915998 0.00121175 0)
(0.0914365 0.00124916 0)
(0.0912744 0.00128965 0)
(0.0911136 0.00133378 0)
(0.0909545 0.00138222 0)
(0.0907975 0.0014358 0)
(0.0906428 0.00149546 0)
(0.0904911 0.00156233 0)
(0.0903431 0.00163773 0)
(0.0901998 0.00172322 0)
(0.0900622 0.00182058 0)
(0.0899321 0.00193187 0)
(0.0898117 0.0020594 0)
(0.0897036 0.00220573 0)
(0.0896115 0.00237361 0)
(0.0895402 0.00256588 0)
(0.0894955 0.00278526 0)
(0.0894853 0.00303407 0)
(0.0895188 0.00331381 0)
(0.0896075 0.00362449 0)
(0.089765 0.00396381 0)
(0.0900064 0.00432615 0)
(0.0903481 0.0047013 0)
(0.090806 0.00507329 0)
(0.0913933 0.00541951 0)
(0.0921166 0.00571072 0)
(0.0929716 0.00591291 0)
(0.0939389 0.00599202 0)
(0.100004 0.000273701 0)
(0.0999566 0.000574793 0)
(0.0998148 0.000654423 0)
(0.0996178 0.00057745 0)
(0.0994145 0.00047967 0)
(0.0992266 0.000423467 0)
(0.0990565 0.000407633 0)
(0.0988997 0.000413405 0)
(0.0987509 0.000426758 0)
(0.0986066 0.00044113 0)
(0.0984648 0.000454479 0)
(0.0983242 0.000466625 0)
(0.0981843 0.000477929 0)
(0.0980448 0.000488794 0)
(0.0979054 0.000499536 0)
(0.0977659 0.000510392 0)
(0.0976261 0.000521544 0)
(0.0974858 0.000533123 0)
(0.0973449 0.000545237 0)
(0.0972033 0.000557974 0)
(0.0970609 0.000571409 0)
(0.0969175 0.000585604 0)
(0.0967731 0.000600602 0)
(0.0966276 0.00061644 0)
(0.0964809 0.000633131 0)
(0.0963331 0.000650667 0)
(0.0961841 0.000669022 0)
(0.0960339 0.000688151 0)
(0.0958826 0.000708003 0)
(0.0957301 0.000728516 0)
(0.0955766 0.00074963 0)
(0.0954221 0.000771281 0)
(0.0952666 0.000793414 0)
(0.0951102 0.000815977 0)
(0.094953 0.000838929 0)
(0.0947951 0.000862235 0)
(0.0946366 0.000885869 0)
(0.0944775 0.000909814 0)
(0.094318 0.000934061 0)
(0.0941581 0.000958613 0)
(0.093998 0.000983481 0)
(0.0938378 0.00100869 0)
(0.0936776 0.00103426 0)
(0.0935174 0.00106025 0)
(0.0933575 0.00108669 0)
(0.0931979 0.00111367 0)
(0.0930388 0.00114128 0)
(0.0928803 0.00116961 0)
(0.0927226 0.0011988 0)
(0.0925659 0.00122901 0)
(0.0924102 0.00126042 0)
(0.0922559 0.00129325 0)
(0.0921031 0.00132778 0)
(0.0919522 0.00136429 0)
(0.0918032 0.00140316 0)
(0.0916567 0.00144481 0)
(0.091513 0.00148974 0)
(0.0913726 0.00153851 0)
(0.091236 0.00159182 0)
(0.0911038 0.00165044 0)
(0.0909771 0.00171525 0)
(0.0908567 0.0017873 0)
(0.0907441 0.0018677 0)
(0.0906407 0.00195774 0)
(0.0905487 0.00205876 0)
(0.0904705 0.0021722 0)
(0.0904092 0.00229949 0)
(0.0903685 0.00244194 0)
(0.0903532 0.00260065 0)
(0.0903688 0.00277623 0)
(0.0904219 0.00296857 0)
(0.09052 0.00317643 0)
(0.0906718 0.00339705 0)
(0.0908867 0.00362559 0)
(0.0911741 0.00385463 0)
(0.0915432 0.00407377 0)
(0.0920015 0.00426944 0)
(0.0925533 0.00442517 0)
(0.093198 0.0045226 0)
(0.0939283 0.00454335 0)
(0.0947288 0.00447188 0)
(0.100006 0.000277772 0)
(0.0999746 0.000606306 0)
(0.0998572 0.000713571 0)
(0.0996787 0.000650684 0)
(0.0994852 0.000554365 0)
(0.0993015 0.000493935 0)
(0.0991332 0.000473442 0)
(0.0989778 0.000476061 0)
(0.0988311 0.000487851 0)
(0.0986898 0.000501799 0)
(0.0985515 0.000515427 0)
(0.0984149 0.00052827 0)
(0.0982794 0.000540532 0)
(0.0981444 0.000552536 0)
(0.0980095 0.000564563 0)
(0.0978746 0.000576833 0)
(0.0977394 0.00058952 0)
(0.0976037 0.000602752 0)
(0.0974674 0.000616632 0)
(0.0973303 0.000631243 0)
(0.0971924 0.000646659 0)
(0.0970535 0.000662933 0)
(0.0969135 0.000680103 0)
(0.0967724 0.000698194 0)
(0.0966302 0.000717211 0)
(0.0964869 0.00073714 0)
(0.0963424 0.000757945 0)
(0.0961969 0.000779574 0)
(0.0960503 0.000801965 0)
(0.0959027 0.000825051 0)
(0.0957542 0.000848764 0)
(0.0956048 0.000873036 0)
(0.0954546 0.000897804 0)
(0.0953037 0.000923012 0)
(0.0951522 0.000948612 0)
(0.0950002 0.000974563 0)
(0.0948478 0.00100083 0)
(0.0946951 0.0010274 0)
(0.0945422 0.00105424 0)
(0.0943891 0.00108136 0)
(0.0942362 0.00110876 0)
(0.0940834 0.00113645 0)
(0.0939309 0.00116445 0)
(0.0937788 0.00119279 0)
(0.0936274 0.00122151 0)
(0.0934767 0.00125068 0)
(0.093327 0.00128035 0)
(0.0931784 0.00131062 0)
(0.0930311 0.0013416 0)
(0.0928855 0.00137341 0)
(0.0927416 0.00140621 0)
(0.0925998 0.00144017 0)
(0.0924605 0.00147552 0)
(0.0923239 0.00151249 0)
(0.0921904 0.00155137 0)
(0.0920607 0.0015925 0)
(0.0919351 0.00163626 0)
(0.0918143 0.00168306 0)
(0.091699 0.00173341 0)
(0.0915903 0.00178785 0)
(0.091489 0.00184698 0)
(0.0913965 0.00191145 0)
(0.0913143 0.00198193 0)
(0.0912441 0.00205912 0)
(0.0911882 0.00214366 0)
(0.0911491 0.00223613 0)
(0.0911298 0.00233691 0)
(0.0911338 0.00244613 0)
(0.0911652 0.00256347 0)
(0.0912286 0.00268806 0)
(0.0913291 0.00281817 0)
(0.0914723 0.00295107 0)
(0.0916641 0.0030827 0)
(0.09191 0.0032075 0)
(0.0922154 0.00331823 0)
(0.0925844 0.00340601 0)
(0.0930195 0.0034606 0)
(0.0935205 0.00347105 0)
(0.0940841 0.00342673 0)
(0.0947027 0.00331878 0)
(0.0953647 0.00314168 0)
(0.100006 0.000279256 0)
(0.0999863 0.000632802 0)
(0.0998889 0.000768933 0)
(0.0997284 0.000723052 0)
(0.0995469 0.000630784 0)
(0.0993699 0.000567523 0)
(0.0992055 0.000542738 0)
(0.0990531 0.000542036 0)
(0.0989094 0.000551932 0)
(0.0987715 0.000565145 0)
(0.098637 0.00057882 0)
(0.0985046 0.000592211 0)
(0.0983734 0.000605351 0)
(0.0982429 0.000618467 0)
(0.0981127 0.000631793 0)
(0.0979824 0.000645519 0)
(0.0978519 0.000659803 0)
(0.0977208 0.000674768 0)
(0.0975891 0.000690504 0)
(0.0974567 0.000707087 0)
(0.0973233 0.000724581 0)
(0.097189 0.000743034 0)
(0.0970536 0.000762471 0)
(0.0969171 0.000782903 0)
(0.0967796 0.000804327 0)
(0.096641 0.000826717 0)
(0.0965014 0.000850029 0)
(0.0963608 0.0008742 0)
(0.0962193 0.000899161 0)
(0.0960769 0.000924837 0)
(0.0959338 0.000951153 0)
(0.0957899 0.000978034 0)
(0.0956455 0.00100541 0)
(0.0955005 0.00103322 0)
(0.0953552 0.00106141 0)
(0.0952095 0.00108992 0)
(0.0950637 0.00111873 0)
(0.0949178 0.0011478 0)
(0.0947719 0.00117709 0)
(0.0946263 0.00120661 0)
(0.094481 0.00123633 0)
(0.0943362 0.00126626 0)
(0.0941921 0.0012964 0)
(0.0940488 0.00132676 0)
(0.0939065 0.00135738 0)
(0.0937654 0.00138827 0)
(0.0936258 0.00141949 0)
(0.0934878 0.0014511 0)
(0.0933518 0.00148316 0)
(0.093218 0.00151576 0)
(0.0930868 0.00154901 0)
(0.0929584 0.00158302 0)
(0.0928333 0.00161794 0)
(0.092712 0.00165393 0)
(0.0925948 0.00169117 0)
(0.0924825 0.00172987 0)
(0.0923757 0.00177026 0)
(0.0922751 0.00181259 0)
(0.0921816 0.00185711 0)
(0.0920963 0.00190412 0)
(0.0920202 0.00195388 0)
(0.0919548 0.00200664 0)
(0.0919016 0.00206262 0)
(0.0918625 0.00212196 0)
(0.0918394 0.00218466 0)
(0.0918348 0.00225054 0)
(0.0918514 0.00231918 0)
(0.091892 0.00238978 0)
(0.0919601 0.00246112 0)
(0.0920589 0.00253137 0)
(0.0921922 0.002598 0)
(0.0923636 0.00265769 0)
(0.0925766 0.00270616 0)
(0.0928341 0.00273817 0)
(0.0931387 0.00274759 0)
(0.0934913 0.00272759 0)
(0.0938919 0.00267106 0)
(0.0943383 0.00257129 0)
(0.0948266 0.00242284 0)
(0.0953503 0.00222248 0)
(0.095901 0.00197005 0)
(0.100006 0.000279096 0)
(0.0999932 0.000655311 0)
(0.0999118 0.000820706 0)
(0.0997683 0.000793923 0)
(0.0995998 0.000707958 0)
(0.0994315 0.000643359 0)
(0.0992729 0.000614903 0)
(0.0991247 0.000610955 0)
(0.0989849 0.000618799 0)
(0.0988508 0.000631066 0)
(0.0987204 0.000644606 0)
(0.0985923 0.000658421 0)
(0.0984656 0.00067237 0)
(0.0983397 0.000686579 0)
(0.098214 0.000701216 0)
(0.0980884 0.000716438 0)
(0.0979625 0.00073238 0)
(0.0978362 0.000749149 0)
(0.0977091 0.000766822 0)
(0.0975814 0.000785462 0)
(0.0974527 0.00080512 0)
(0.0973231 0.000825832 0)
(0.0971924 0.000847611 0)
(0.0970608 0.000870452 0)
(0.0969282 0.000894338 0)
(0.0967946 0.000919233 0)
(0.0966601 0.00094508 0)
(0.0965248 0.000971809 0)
(0.0963887 0.00099934 0)
(0.0962518 0.00102759 0)
(0.0961144 0.00105648 0)
(0.0959765 0.00108593 0)
(0.0958381 0.00111585 0)
(0.0956995 0.00114618 0)
(0.0955607 0.00117686 0)
(0.0954218 0.00120782 0)
(0.095283 0.00123902 0)
(0.0951444 0.00127042 0)
(0.0950061 0.00130196 0)
(0.0948684 0.00133363 0)
(0.0947313 0.0013654 0)
(0.0945951 0.00139725 0)
(0.0944598 0.00142916 0)
(0.0943259 0.00146112 0)
(0.0941934 0.00149313 0)
(0.0940625 0.00152519 0)
(0.0939337 0.00155731 0)
(0.093807 0.00158951 0)
(0.0936829 0.0016218 0)
(0.0935617 0.00165423 0)
(0.0934437 0.00168683 0)
(0.0933294 0.00171964 0)
(0.0932192 0.00175271 0)
(0.0931136 0.00178611 0)
(0.0930133 0.00181988 0)
(0.0929189 0.0018541 0)
(0.0928311 0.00188881 0)
(0.0927507 0.00192405 0)
(0.0926787 0.00195987 0)
(0.0926161 0.00199624 0)
(0.0925642 0.00203314 0)
(0.0925242 0.00207043 0)
(0.0924977 0.0021079 0)
(0.0924862 0.00214522 0)
(0.0924918 0.00218187 0)
(0.0925163 0.00221712 0)
(0.0925619 0.00224995 0)
(0.0926309 0.002279 0)
(0.0927257 0.00230252 0)
(0.0928486 0.00231827 0)
(0.0930021 0.0023235 0)
(0.093188 0.00231488 0)
(0.0934083 0.00228853 0)
(0.0936641 0.00224003 0)
(0.093956 0.00216461 0)
(0.0942837 0.0020574 0)
(0.0946456 0.00191379 0)
(0.0950393 0.00173009 0)
(0.095461 0.00150415 0)
(0.0959057 0.001236 0)
(0.0963673 0.000928324 0)
(0.100005 0.000278055 0)
(0.0999967 0.000674826 0)
(0.0999279 0.000869231 0)
(0.0997999 0.000862905 0)
(0.0996447 0.000785116 0)
(0.0994864 0.000720649 0)
(0.0993349 0.000689321 0)
(0.0991922 0.000682412 0)
(0.0990569 0.000688209 0)
(0.0989272 0.000699423 0)
(0.0988011 0.000712711 0)
(0.0986775 0.000726862 0)
(0.0985553 0.000741572 0)
(0.098434 0.000756858 0)
(0.098313 0.000772822 0)
(0.0981921 0.000789579 0)
(0.0980709 0.000807232 0)
(0.0979492 0.000825866 0)
(0.0978269 0.000845542 0)
(0.0977039 0.000866306 0)
(0.09758 0.000888193 0)
(0.0974553 0.000911222 0)
(0.0973296 0.000935392 0)
(0.097203 0.000960683 0)
(0.0970755 0.000987061 0)
(0.0969472 0.00101448 0)
(0.0968181 0.00104286 0)
(0.0966883 0.00107213 0)
(0.0965578 0.0011022 0)
(0.0964269 0.00113298 0)
(0.0962955 0.00116438 0)
(0.0961639 0.00119631 0)
(0.096032 0.00122868 0)
(0.0959001 0.00126141 0)
(0.0957682 0.00129443 0)
(0.0956365 0.00132767 0)
(0.0955052 0.00136106 0)
(0.0953743 0.00139455 0)
(0.0952441 0.00142807 0)
(0.0951147 0.00146159 0)
(0.0949863 0.00149504 0)
(0.0948591 0.0015284 0)
(0.0947334 0.00156161 0)
(0.0946093 0.00159464 0)
(0.0944871 0.00162744 0)
(0.094367 0.00165999 0)
(0.0942495 0.00169224 0)
(0.0941347 0.00172416 0)
(0.094023 0.00175572 0)
(0.0939148 0.00178688 0)
(0.0938106 0.00181759 0)
(0.0937108 0.00184782 0)
(0.0936158 0.0018775 0)
(0.0935263 0.00190657 0)
(0.0934429 0.00193496 0)
(0.0933663 0.00196256 0)
(0.0932972 0.00198926 0)
(0.0932365 0.00201488 0)
(0.093185 0.00203924 0)
(0.0931439 0.00206205 0)
(0.0931143 0.00208298 0)
(0.0930973 0.0021016 0)
(0.0930943 0.00211735 0)
(0.0931067 0.00212952 0)
(0.093136 0.00213723 0)
(0.0931837 0.00213939 0)
(0.0932515 0.00213463 0)
(0.093341 0.00212134 0)
(0.0934537 0.00209756 0)
(0.0935911 0.00206101 0)
(0.0937544 0.00200907 0)
(0.0939446 0.00193877 0)
(0.0941624 0.00184687 0)
(0.0944078 0.0017299 0)
(0.0946805 0.00158437 0)
(0.0949794 0.00140699 0)
(0.0953026 0.00119501 0)
(0.0956478 0.000946744 0)
(0.0960118 0.000662054 0)
(0.0963907 0.000342875 0)
(0.0967801 -6.19663e-06 0)
(0.100004 0.000276722 0)
(0.0999978 0.000692233 0)
(0.0999388 0.000914915 0)
(0.0998247 0.000929794 0)
(0.0996827 0.000861636 0)
(0.099535 0.000798667 0)
(0.0993916 0.000765373 0)
(0.0992551 0.000755953 0)
(0.0991252 0.000759849 0)
(0.0990003 0.00077001 0)
(0.0988789 0.000783001 0)
(0.0987599 0.000797443 0)
(0.0986424 0.000812886 0)