/*--------------------------------*- C++ -*----------------------------------*\
| =========                 |                                                 |
| \\      /  F ield         | OpenFOAM: The Open Source CFD Toolbox           |
|  \\    /   O peration     | Version:  4.1                                   |
|   \\  /    A nd           | Web:      www.OpenFOAM.org                      |
|    \\/     M anipulation  |                                                 |
\*---------------------------------------------------------------------------*/
FoamFile
{
    version     2.0;
    format      ascii;
    class       surfaceScalarField;
    location    "1";
    object      phi;
}
// * * * * * * * * * * * * * * * * * * * * * * * * * * * * * * * * * * * * * //

dimensions      [1 0 -1 0 0 0 0];

internalField   nonuniform List<scalar> 
23692
(
1.16368e-05
-1.8179e-09
1.16397e-05
-2.88347e-09
1.16428e-05
-3.11416e-09
1.16452e-05
-2.40619e-09
1.16461e-05
-8.48225e-10
1.16448e-05
1.31371e-09
1.16412e-05
3.71113e-09
1.16353e-05
5.95144e-09
1.16276e-05
7.72719e-09
1.16188e-05
8.87727e-09
1.16095e-05
9.39262e-09
1.16002e-05
9.3758e-09
1.15914e-05
8.98031e-09
1.15831e-05
8.36235e-09
1.15756e-05
7.64563e-09
1.15689e-05
6.91296e-09
1.15628e-05
6.20704e-09
1.15575e-05
5.5423e-09
1.15528e-05
4.91622e-09
1.15486e-05
4.31845e-09
1.15451e-05
3.73718e-09
1.15422e-05
3.16223e-09
1.15399e-05
2.58715e-09
1.15382e-05
2.00753e-09
1.1537e-05
1.42199e-09
1.15365e-05
8.31038e-10
1.15366e-05
2.3545e-10
1.15373e-05
-3.62036e-10
1.15386e-05
-9.59061e-10
1.15406e-05
-1.55273e-09
1.15431e-05
-2.13967e-09
1.15463e-05
-2.717e-09
1.155e-05
-3.28082e-09
1.15542e-05
-3.82763e-09
1.15591e-05
-4.35381e-09
1.15644e-05
-4.85483e-09
1.15702e-05
-5.32705e-09
1.15765e-05
-5.76582e-09
1.15832e-05
-6.16648e-09
1.15902e-05
-6.52448e-09
1.15976e-05
-6.83438e-09
1.16053e-05
-7.09116e-09
1.16131e-05
-7.28919e-09
1.16211e-05
-7.42219e-09
1.16292e-05
-7.48393e-09
1.16373e-05
-7.46732e-09
1.16452e-05
-7.36468e-09
1.1653e-05
-7.16773e-09
1.16605e-05
-6.86722e-09
1.16676e-05
-6.45253e-09
1.16741e-05
-5.91215e-09
1.168e-05
-5.23272e-09
1.16851e-05
-4.39906e-09
1.16891e-05
-3.39349e-09
1.16919e-05
-2.19575e-09
1.16934e-05
-7.81796e-10
1.16932e-05
8.76401e-10
1.1691e-05
2.81263e-09
1.16866e-05
5.06687e-09
1.16796e-05
7.68751e-09
1.16695e-05
1.07335e-08
1.16559e-05
1.42778e-08
1.16382e-05
1.84108e-08
1.16156e-05
2.32461e-08
1.15873e-05
2.89284e-08
1.15523e-05
3.56443e-08
1.15093e-05
4.36375e-08
1.14567e-05
5.32317e-08
1.13925e-05
6.48642e-08
1.1314e-05
7.91357e-08
1.12178e-05
9.68887e-08
1.10991e-05
1.19328e-07
1.09515e-05
1.48215e-07
1.0766e-05
1.86177e-07
1.05294e-05
2.37218e-07
1.02224e-05
3.07553e-07
9.81611e-06
4.06932e-07
9.26583e-06
5.50892e-07
8.50046e-06
7.65967e-07
7.39858e-06
1.10247e-06
1.69484e-06
5.70433e-06
1.24518e-05
-3.74344e-09
1.24549e-05
-5.97724e-09
1.24583e-05
-6.46963e-09
1.2461e-05
-5.01481e-09
1.24619e-05
-1.79988e-09
1.24606e-05
2.66781e-09
1.24568e-05
7.62793e-09
1.24505e-05
1.22687e-08
1.24424e-05
1.59515e-08
1.2433e-05
1.83419e-08
1.24231e-05
1.94201e-08
1.24131e-05
1.93955e-08
1.24037e-05
1.85871e-08
1.23948e-05
1.73156e-08
1.23868e-05
1.58387e-08
1.23795e-05
1.43268e-08
1.23731e-05
1.28693e-08
1.23673e-05
1.14967e-08
1.23622e-05
1.02039e-08
1.23578e-05
8.9697e-09
1.2354e-05
7.76973e-09
1.23509e-05
6.58381e-09
1.23483e-05
5.39734e-09
1.23464e-05
4.20231e-09
1.23452e-05
2.99561e-09
1.23446e-05
1.7775e-09
1.23446e-05
5.51234e-10
1.23453e-05
-6.78983e-10
1.23466e-05
-1.90782e-09
1.23486e-05
-3.12904e-09
1.23512e-05
-4.33668e-09
1.23545e-05
-5.52341e-09
1.23583e-05
-6.6824e-09
1.23628e-05
-7.80576e-09
1.23678e-05
-8.88561e-09
1.23734e-05
-9.91404e-09
1.23795e-05
-1.08821e-08
1.2386e-05
-1.17808e-08
1.2393e-05
-1.26006e-08
1.24004e-05
-1.33315e-08
1.24081e-05
-1.39635e-08
1.24161e-05
-1.44851e-08
1.24243e-05
-1.48851e-08
1.24327e-05
-1.51507e-08
1.24411e-05
-1.5269e-08
1.24495e-05
-1.52252e-08
1.24578e-05
-1.50039e-08
1.24658e-05
-1.45879e-08
1.24736e-05
-1.39579e-08
1.24809e-05
-1.30929e-08
1.24877e-05
-1.19686e-08
1.24937e-05
-1.0558e-08
1.24988e-05
-8.82981e-09
1.25028e-05
-6.74834e-09
1.25056e-05
-4.27181e-09
1.25069e-05
-1.3515e-09
1.25064e-05
2.06984e-09
1.25039e-05
6.06022e-09
1.24989e-05
1.07005e-08
1.24912e-05
1.60884e-08
1.24803e-05
2.2343e-08
1.24657e-05
2.96098e-08
1.24468e-05
3.80697e-08
1.24228e-05
4.79484e-08
1.23929e-05
5.9532e-08
1.2356e-05
7.31865e-08
1.2311e-05
8.93868e-08
1.22562e-05
1.08758e-07
1.21896e-05
1.32132e-07
1.21088e-05
1.60641e-07
1.20105e-05
1.9584e-07
1.18906e-05
2.39905e-07
1.17436e-05
2.9593e-07
1.15621e-05
3.68362e-07
1.13363e-05
4.63656e-07
1.10533e-05
5.91165e-07
1.06968e-05
7.64161e-07
1.02477e-05
1.00059e-06
9.69126e-06
1.32305e-06
9.04414e-06
1.75023e-06
2.23083e-06
8.50878e-06
1.3324e-05
-5.77856e-09
1.33273e-05
-9.29887e-09
1.3331e-05
-1.00882e-08
1.33339e-05
-7.86288e-09
1.3335e-05
-2.90538e-09
1.33337e-05
4.00375e-09
1.33297e-05
1.1689e-08
1.33232e-05
1.88947e-08
1.33146e-05
2.46278e-08
1.33046e-05
2.83665e-08
1.32941e-05
3.00739e-08
1.32835e-05
3.00699e-08
1.32734e-05
2.88456e-08
1.32639e-05
2.68964e-08
1.32553e-05
2.46226e-08
1.32475e-05
2.22892e-08
1.32406e-05
2.00366e-08
1.32343e-05
1.79133e-08
1.32289e-05
1.59128e-08
1.32241e-05
1.4003e-08
1.322e-05
1.21476e-08
1.32165e-05
1.0315e-08
1.32137e-05
8.48296e-09
1.32116e-05
6.63916e-09
1.32102e-05
4.77845e-09
1.32094e-05
2.90148e-09
1.32093e-05
1.01281e-09
1.32099e-05
-8.80724e-10
1.32112e-05
-2.77112e-09
1.32131e-05
-4.64879e-09
1.32158e-05
-6.50395e-09
1.3219e-05
-8.32607e-09
1.3223e-05
-1.0104e-08
1.32275e-05
-1.18259e-08
1.32326e-05
-1.34798e-08
1.32383e-05
-1.50528e-08
1.32445e-05
-1.65315e-08
1.32512e-05
-1.7902e-08
1.32584e-05
-1.91496e-08
1.32659e-05
-2.02589e-08
1.32738e-05
-2.12141e-08
1.32819e-05
-2.19981e-08
1.32903e-05
-2.25927e-08
1.32988e-05
-2.29793e-08
1.33073e-05
-2.31371e-08
1.33158e-05
-2.30441e-08
1.33242e-05
-2.26762e-08
1.33323e-05
-2.2007e-08
1.33401e-05
-2.10074e-08
1.33474e-05
-1.96447e-08
1.3354e-05
-1.78822e-08
1.33598e-05
-1.56784e-08
1.33647e-05
-1.29859e-08
1.33685e-05
-9.75034e-09
1.33709e-05
-5.90847e-09
1.33717e-05
-1.38623e-09
1.33706e-05
3.90217e-09
1.33673e-05
1.00588e-08
1.33616e-05
1.72049e-08
1.3353e-05
2.54861e-08
1.3341e-05
3.50789e-08
1.33252e-05
4.61983e-08
1.33049e-05
5.91089e-08
1.32794e-05
7.41397e-08
1.3248e-05
9.17029e-08
1.32096e-05
1.12321e-07
1.31631e-05
1.36664e-07
1.3107e-05
1.65598e-07
1.30396e-05
2.00261e-07
1.29589e-05
2.42159e-07
1.28621e-05
2.93313e-07
1.27463e-05
3.56454e-07
1.26076e-05
4.35301e-07
1.24418e-05
5.34914e-07
1.22441e-05
6.62123e-07
1.201e-05
8.25884e-07
1.17377e-05
1.03716e-06
1.14317e-05
1.30734e-06
1.11124e-05
1.64304e-06
1.08342e-05
2.0291e-06
2.38042e-06
1.06853e-05
1.42573e-05
-7.93254e-09
1.42608e-05
-1.28618e-08
1.42648e-05
-1.39984e-08
1.42679e-05
-1.0998e-08
1.42693e-05
-4.23048e-09
1.42681e-05
5.23973e-09
1.42641e-05
1.58054e-08
1.42573e-05
2.57426e-08
1.42483e-05
3.36828e-08
1.42379e-05
3.88975e-08
1.42267e-05
4.13243e-08
1.42155e-05
4.13927e-08
1.42048e-05
3.97696e-08
1.41947e-05
3.71349e-08
1.41854e-05
3.40381e-08
1.41771e-05
3.08465e-08
1.41695e-05
2.77576e-08
1.41628e-05
2.48412e-08
1.41569e-05
2.20916e-08
1.41517e-05
1.94676e-08
1.41472e-05
1.69196e-08
1.41434e-05
1.44052e-08
1.41403e-05
1.18948e-08
1.41379e-05
9.37088e-09
1.41362e-05
6.82658e-09
1.41353e-05
4.26259e-09
1.4135e-05
1.68494e-09
1.41354e-05
-8.97195e-10
1.41366e-05
-3.47247e-09
1.41384e-05
-6.02845e-09
1.4141e-05
-8.55145e-09
1.41442e-05
-1.10271e-08
1.4148e-05
-1.344e-08
1.41525e-05
-1.5774e-08
1.41576e-05
-1.80125e-08
1.41633e-05
-2.01381e-08
1.41695e-05
-2.21324e-08
1.41762e-05
-2.39761e-08
1.41833e-05
-2.56492e-08
1.41909e-05
-2.71308e-08
1.41987e-05
-2.83989e-08
1.42068e-05
-2.94303e-08
1.42151e-05
-3.02009e-08
1.42236e-05
-3.06843e-08
1.4232e-05
-3.08526e-08
1.42404e-05
-3.0676e-08
1.42485e-05
-3.01216e-08
1.42564e-05
-2.91536e-08
1.42639e-05
-2.77326e-08
1.42709e-05
-2.58146e-08
1.42771e-05
-2.33499e-08
1.42825e-05
-2.0283e-08
1.42869e-05
-1.65502e-08
1.429e-05
-1.20786e-08
1.42917e-05
-6.78396e-09
1.42917e-05
-5.68461e-10
1.42897e-05
6.68198e-09
1.42855e-05
1.51008e-08
1.42786e-05
2.48467e-08
1.42688e-05
3.61094e-08
1.42556e-05
4.91165e-08
1.42385e-05
6.41437e-08
1.42168e-05
8.15268e-08
1.41901e-05
1.01679e-07
1.41575e-05
1.25112e-07
1.41182e-05
1.52463e-07
1.40711e-05
1.84538e-07
1.40151e-05
2.22356e-07
1.3949e-05
2.67222e-07
1.38711e-05
3.20814e-07
1.37799e-05
3.85299e-07
1.36737e-05
4.63483e-07
1.35508e-05
5.58971e-07
1.34101e-05
6.7634e-07
1.32518e-05
8.21205e-07
1.30784e-05
1e-06
1.28973e-05
1.21902e-06
1.27236e-05
1.48181e-06
1.2584e-05
1.78339e-06
1.25154e-05
2.09838e-06
2.36126e-06
1.25353e-05
1.52559e-05
-1.0215e-08
1.52597e-05
-1.66829e-08
1.5264e-05
-1.82352e-08
1.52675e-05
-1.4477e-08
1.52692e-05
-5.85784e-09
1.52682e-05
6.271e-09
1.52642e-05
1.98586e-08
1.52573e-05
3.26937e-08
1.52481e-05
4.30095e-08
1.52372e-05
4.98516e-08
1.52256e-05
5.31174e-08
1.52138e-05
5.3339e-08
1.52023e-05
5.13612e-08
1.51916e-05
4.80519e-08
1.51817e-05
4.41195e-08
1.51727e-05
4.00417e-08
1.51646e-05
3.60785e-08
1.51573e-05
3.23279e-08
1.51509e-05
2.87879e-08
1.51452e-05
2.54092e-08
1.51403e-05
2.21312e-08
1.51361e-05
1.89011e-08
1.51327e-05
1.56807e-08
1.513e-05
1.24483e-08
1.5128e-05
9.19427e-09
1.51267e-05
5.91965e-09
1.51262e-05
2.63145e-09
1.51264e-05
-6.5861e-10
1.51274e-05
-3.93604e-09
1.5129e-05
-7.18498e-09
1.51314e-05
-1.03881e-08
1.51344e-05
-1.35268e-08
1.51381e-05
-1.65813e-08
1.51425e-05
-1.95313e-08
1.51474e-05
-2.23552e-08
1.5153e-05
-2.50307e-08
1.5159e-05
-2.75341e-08
1.51655e-05
-2.98409e-08
1.51725e-05
-3.19254e-08
1.51798e-05
-3.3761e-08
1.51875e-05
-3.53196e-08
1.51953e-05
-3.65717e-08
1.52034e-05
-3.74861e-08
1.52115e-05
-3.80297e-08
1.52195e-05
-3.81671e-08
1.52275e-05
-3.786e-08
1.52353e-05
-3.70675e-08
1.52427e-05
-3.57442e-08
1.52496e-05
-3.38403e-08
1.52559e-05
-3.13005e-08
1.52614e-05
-2.80629e-08
1.5266e-05
-2.40581e-08
1.52696e-05
-1.92069e-08
1.52717e-05
-1.3419e-08
1.52724e-05
-6.59065e-09
1.52713e-05
1.39798e-09
1.52682e-05
1.06852e-08
1.52627e-05
2.14329e-08
1.52546e-05
3.38319e-08
1.52434e-05
4.81081e-08
1.52289e-05
6.45301e-08
1.52105e-05
8.34199e-08
1.51877e-05
1.05165e-07
1.516e-05
1.30235e-07
1.51268e-05
1.59202e-07
1.50874e-05
1.92765e-07
1.5041e-05
2.31788e-07
1.49868e-05
2.77334e-07
1.49242e-05
3.30722e-07
1.48523e-05
3.93583e-07
1.47705e-05
4.6793e-07
1.46786e-05
5.56225e-07
1.4577e-05
6.61418e-07
1.44672e-05
7.86929e-07
1.43528e-05
9.36454e-07
1.42401e-05
1.11344e-06
1.414e-05
1.31991e-06
1.40685e-05
1.55414e-06
1.4046e-05
1.80669e-06
1.40906e-05
2.05453e-06
2.2554e-06
1.41973e-05
1.63245e-05
-1.26345e-08
1.63286e-05
-2.07807e-08
1.63332e-05
-2.28378e-08
1.63371e-05
-1.83669e-08
1.63392e-05
-7.88689e-09
1.63386e-05
6.96899e-09
1.63348e-05
2.37e-08
1.6328e-05
3.95955e-08
1.63186e-05
5.24682e-08
1.63075e-05
6.1114e-08
1.62953e-05
6.53712e-08
1.6283e-05
6.5862e-08
1.62709e-05
6.36037e-08
1.62594e-05
5.96564e-08
1.62489e-05
5.48928e-08
1.62392e-05
4.99102e-08
1.62305e-05
4.50408e-08
1.62226e-05
4.04165e-08
1.62157e-05
3.6044e-08
1.62095e-05
3.18704e-08
1.62041e-05
2.78251e-08
1.61995e-05
2.38453e-08
1.61957e-05
1.98855e-08
1.61926e-05
1.59182e-08
1.61903e-05
1.19321e-08
1.61887e-05
7.92748e-09
1.61879e-05
3.91301e-09
1.61878e-05
-9.75494e-11
1.61885e-05
-4.08698e-09
1.61899e-05
-8.03566e-09
1.6192e-05
-1.19223e-08
1.61947e-05
-1.57242e-08
1.61982e-05
-1.94174e-08
1.62022e-05
-2.29768e-08
1.62069e-05
-2.63756e-08
1.62121e-05
-2.95867e-08
1.62179e-05
-3.25811e-08
1.62241e-05
-3.53287e-08
1.62307e-05
-3.77982e-08
1.62376e-05
-3.99568e-08
1.62448e-05
-4.17704e-08
1.62522e-05
-4.32031e-08
1.62598e-05
-4.42169e-08
1.62673e-05
-4.47717e-08
1.62748e-05
-4.48246e-08
1.62821e-05
-4.43295e-08
1.62891e-05
-4.32368e-08
1.62957e-05
-4.14921e-08
1.63018e-05
-3.9036e-08
1.63072e-05
-3.58023e-08
1.63117e-05
-3.17178e-08
1.63153e-05
-2.67e-08
1.63176e-05
-2.06559e-08
1.63186e-05
-1.348e-08
1.6318e-05
-5.0512e-09
1.63155e-05
4.76807e-09
1.6311e-05
1.61361e-08
1.63041e-05
2.92371e-08
1.62946e-05
4.42856e-08
1.62821e-05
6.15332e-08
1.62663e-05
8.12753e-08
1.62468e-05
1.03861e-07
1.62232e-05
1.29703e-07
1.6195e-05
1.59293e-07
1.61619e-05
1.93219e-07
1.61235e-05
2.32179e-07
1.60791e-05
2.77013e-07
1.60287e-05
3.28719e-07
1.59718e-05
3.88487e-07
1.59086e-05
4.57721e-07
1.58394e-05
5.38055e-07
1.57651e-05
6.31348e-07
1.56878e-05
7.39634e-07
1.56106e-05
8.64984e-07
1.55387e-05
1.00921e-06
1.54797e-05
1.17332e-06
1.5444e-05
1.35654e-06
1.54441e-05
1.5548e-06
1.5493e-05
1.75865e-06
1.55974e-05
1.95103e-06
2.10678e-06
1.57468e-05
1.74679e-05
-1.52004e-08
1.74723e-05
-2.51747e-08
1.74773e-05
-2.7848e-08
1.74818e-05
-2.2741e-08
1.74843e-05
-1.04283e-08
1.74842e-05
7.18585e-09
1.74808e-05
2.71565e-08
1.74742e-05
4.62651e-08
1.74649e-05
6.18857e-08
1.74536e-05
7.25386e-08
1.74411e-05
7.79759e-08
1.74283e-05
7.88903e-08
1.74156e-05
7.64625e-08
1.74035e-05
7.19417e-08
1.73922e-05
6.63726e-08
1.73819e-05
6.04805e-08
1.73725e-05
5.46797e-08
1.7364e-05
4.91445e-08
1.73565e-05
4.3899e-08
1.73497e-05
3.88893e-08
1.73439e-05
3.4039e-08
1.73388e-05
2.92765e-08
1.73345e-05
2.45486e-08
1.73311e-05
1.98236e-08
1.73283e-05
1.50871e-08
1.73264e-05
1.03389e-08
1.73252e-05
5.5884e-09
1.73248e-05
8.51527e-10
1.73251e-05
-3.85167e-09
1.73261e-05
-8.49791e-09
1.73279e-05
-1.30624e-08
1.73303e-05
-1.7518e-08
1.73333e-05
-2.18361e-08
1.7337e-05
-2.59868e-08
1.73413e-05
-2.99389e-08
1.73461e-05
-3.36594e-08
1.73513e-05
-3.71142e-08
1.7357e-05
-4.02675e-08
1.73631e-05
-4.30825e-08
1.73695e-05
-4.55204e-08
1.7376e-05
-4.75409e-08
1.73828e-05
-4.91017e-08
1.73896e-05
-5.01583e-08
1.73963e-05
-5.06637e-08
1.7403e-05
-5.05678e-08
1.74093e-05
-4.98171e-08
1.74154e-05
-4.83539e-08
1.74209e-05
-4.61154e-08
1.74258e-05
-4.30332e-08
1.743e-05
-3.90318e-08
1.74333e-05
-3.40275e-08
1.74355e-05
-2.79272e-08
1.74364e-05
-2.06263e-08
1.74359e-05
-1.20067e-08
1.74338e-05
-1.93486e-09
1.74298e-05
9.7398e-09
1.74237e-05
2.31894e-08
1.74153e-05
3.8612e-08
1.74044e-05
5.62357e-08
1.73906e-05
7.63236e-08
1.73737e-05
9.91802e-08
1.73534e-05
1.25159e-07
1.73294e-05
1.54669e-07
1.73015e-05
1.88188e-07
1.72694e-05
2.2627e-07
1.7233e-05
2.69554e-07
1.71922e-05
3.18781e-07
1.71471e-05
3.74795e-07
1.7098e-05
4.38553e-07
1.70456e-05
5.11115e-07
1.6991e-05
5.93625e-07
1.69361e-05
6.87257e-07
1.68835e-05
7.93125e-07
1.68373e-05
9.12107e-07
1.68029e-05
1.04458e-06
1.67872e-05
1.18998e-06
1.67984e-05
1.3462e-06
1.68454e-05
1.5088e-06
1.69348e-05
1.67009e-06
1.7068e-05
1.81873e-06
1.9404e-06
1.72353e-05
1.86914e-05
-1.79209e-08
1.86961e-05
-2.9885e-08
1.87016e-05
-3.33094e-08
1.87066e-05
-2.76756e-08
1.87098e-05
-1.36001e-08
1.87103e-05
6.76268e-09
1.87075e-05
3.00376e-08
1.87014e-05
5.24987e-08
1.86923e-05
7.10645e-08
1.8681e-05
8.39516e-08
1.86683e-05
9.07936e-08
1.86551e-05
9.23273e-08
1.86418e-05
8.98788e-08
1.86291e-05
8.48826e-08
1.86171e-05
7.85578e-08
1.86061e-05
7.17674e-08
1.8596e-05
6.50192e-08
1.85869e-05
5.85423e-08
1.85787e-05
5.23842e-08
1.85715e-05
4.64988e-08
1.85651e-05
4.08063e-08
1.85595e-05
3.52288e-08
1.85548e-05
2.97075e-08
1.85508e-05
2.42048e-08
1.85477e-05
1.87044e-08
1.85453e-05
1.32042e-08
1.85437e-05
7.71474e-09
1.85429e-05
2.25349e-09
1.85428e-05
-3.15663e-09
1.85434e-05
-8.48938e-09
1.85446e-05
-1.37157e-08
1.85466e-05
-1.88045e-08
1.85492e-05
-2.37225e-08
1.85523e-05
-2.84353e-08
1.8556e-05
-3.29062e-08
1.85602e-05
-3.70976e-08
1.85649e-05
-4.09695e-08
1.85699e-05
-4.44811e-08
1.85752e-05
-4.75895e-08
1.85808e-05
-5.02504e-08
1.85866e-05
-5.24174e-08
1.85924e-05
-5.40422e-08
1.85982e-05
-5.5074e-08
1.8604e-05
-5.54594e-08
1.86095e-05
-5.51418e-08
1.86147e-05
-5.40606e-08
1.86194e-05
-5.21512e-08
1.86237e-05
-4.93433e-08
1.86272e-05
-4.55612e-08
1.86299e-05
-4.07214e-08
1.86316e-05
-3.47322e-08
1.86322e-05
-2.74922e-08
1.86315e-05
-1.88886e-08
1.86293e-05
-8.7951e-09
1.86255e-05
2.92888e-09
1.86199e-05
1.64406e-08
1.86122e-05
3.19183e-08
1.86023e-05
4.95639e-08
1.859e-05
6.9606e-08
1.85751e-05
9.23041e-08
1.85574e-05
1.17952e-07
1.85367e-05
1.46884e-07
1.85129e-05
1.79478e-07
1.8486e-05
2.16161e-07
1.84559e-05
2.57409e-07
1.84228e-05
3.03758e-07
1.83868e-05
3.55792e-07
1.83485e-05
4.14147e-07
1.83086e-05
4.79491e-07
1.82683e-05
5.52503e-07
1.82291e-05
6.3383e-07
1.81934e-05
7.24023e-07
1.81641e-05
8.23436e-07
1.81451e-05
9.32083e-07
1.81412e-05
1.04944e-06
1.8158e-05
1.17419e-06
1.82013e-05
1.30389e-06
1.82764e-05
1.43466e-06
1.83866e-05
1.56094e-06
1.85306e-05
1.6756e-06
1.77068e-06
1.87013e-05
2.00006e-05
-2.08034e-08
2.00057e-05
-3.49288e-08
2.00117e-05
-3.92611e-08
2.00173e-05
-3.32427e-08
2.00212e-05
-1.75162e-08
2.00225e-05
5.54178e-09
2.00205e-05
3.21498e-08
2.0015e-05
5.80829e-08
2.00064e-05
7.97918e-08
1.99953e-05
9.51594e-08
1.99826e-05
1.03664e-07
1.99691e-05
1.06052e-07
1.99554e-05
1.03772e-07
1.9942e-05
9.84322e-08
1.99294e-05
9.14285e-08
1.99177e-05
8.37708e-08
1.99069e-05
7.60727e-08
1.98971e-05
6.86294e-08
1.98883e-05
6.15246e-08
1.98804e-05
5.47263e-08
1.98735e-05
4.81569e-08
1.98674e-05
4.17355e-08
1.98621e-05
3.53977e-08
1.98577e-05
2.91021e-08
1.98541e-05
2.28289e-08
1.98513e-05
1.65753e-08
1.98492e-05
1.03512e-08
1.98479e-05
4.17609e-09
1.98473e-05
-1.92508e-09
1.98473e-05
-7.92284e-09
1.98481e-05
-1.37847e-08
1.98495e-05
-1.94749e-08
1.98514e-05
-2.49565e-08
1.9854e-05
-3.01896e-08
1.9857e-05
-3.51333e-08
1.98604e-05
-3.97442e-08
1.98643e-05
-4.39778e-08
1.98685e-05
-4.77873e-08
1.98729e-05
-5.11251e-08
1.98775e-05
-5.39409e-08
1.98822e-05
-5.61829e-08
1.98869e-05
-5.77974e-08
1.98915e-05
-5.87278e-08
1.9896e-05
-5.89149e-08
1.99001e-05
-5.82964e-08
1.99039e-05
-5.68061e-08
1.99071e-05
-5.43734e-08
1.99098e-05
-5.09226e-08
1.99117e-05
-4.63718e-08
1.99126e-05
-4.06322e-08
1.99126e-05
-3.3607e-08
1.99114e-05
-2.51899e-08
1.99089e-05
-1.52644e-08
1.99049e-05
-3.70093e-09
1.98993e-05
9.64149e-09
1.98919e-05
2.49196e-08
1.98827e-05
4.23087e-08
1.98714e-05
6.20033e-08
1.98579e-05
8.42194e-08
1.98421e-05
1.09197e-07
1.9824e-05
1.372e-07
1.98035e-05
1.68522e-07
1.97807e-05
2.03483e-07
1.97555e-05
2.42431e-07
1.97283e-05
2.85739e-07
1.96994e-05
3.338e-07
1.96693e-05
3.87022e-07
1.96388e-05
4.45807e-07
1.96088e-05
5.10534e-07
1.95809e-05
5.81528e-07
1.95568e-05
6.59011e-07
1.95389e-05
7.43049e-07
1.953e-05
8.3347e-07
1.95334e-05
9.29769e-07
1.95529e-05
1.03099e-06
1.95925e-05
1.13561e-06
1.96561e-05
1.24139e-06
1.97465e-05
1.34532e-06
1.98648e-05
1.44362e-06
2.00095e-05
1.53197e-06
1.606e-06
2.01752e-05
2.14015e-05
-2.38531e-08
2.14069e-05
-4.03191e-08
2.14134e-05
-4.57351e-08
2.14197e-05
-3.95029e-08
2.14246e-05
-2.22762e-08
2.14268e-05
3.38132e-09
2.14257e-05
3.33136e-08
2.14211e-05
6.28135e-08
2.14132e-05
8.78571e-08
2.14025e-05
1.05963e-07
2.13899e-05
1.16414e-07
2.13762e-05
1.19925e-07
2.13622e-05
1.18038e-07
2.13483e-05
1.12521e-07
2.1335e-05
1.04944e-07
2.13226e-05
9.64726e-08
2.13112e-05
8.7838e-08
2.13007e-05
7.94161e-08
2.12912e-05
7.13377e-08
2.12828e-05
6.35947e-08
2.12752e-05
5.61184e-08
2.12686e-05
4.88279e-08
2.12628e-05
4.16564e-08
2.12578e-05
3.45584e-08
2.12537e-05
2.75107e-08
2.12503e-05
2.05091e-08
2.12477e-05
1.35635e-08
2.12458e-05
6.69388e-09
2.12446e-05
-7.2516e-11
2.12441e-05
-6.70355e-09
2.12442e-05
-1.31629e-08
2.12449e-05
-1.94115e-08
2.12462e-05
-2.5408e-08
2.12479e-05
-3.11078e-08
2.12501e-05
-3.64653e-08
2.12526e-05
-4.14326e-08
2.12555e-05
-4.59599e-08
2.12586e-05
-4.99958e-08
2.12619e-05
-5.34875e-08
2.12654e-05
-5.63799e-08
2.12688e-05
-5.86165e-08
2.12721e-05
-6.01382e-08
2.12753e-05
-6.0884e-08
2.12783e-05
-6.079e-08
2.12808e-05
-5.97894e-08
2.12829e-05
-5.78116e-08
2.12844e-05
-5.47819e-08
2.12853e-05
-5.0621e-08
2.12853e-05
-4.52439e-08
2.12844e-05
-3.85591e-08
2.12824e-05
-3.04682e-08
2.12792e-05
-2.08644e-08
2.12748e-05
-9.63146e-09
2.12689e-05
3.35559e-09
2.12615e-05
1.82322e-08
2.12525e-05
3.51472e-08
2.12417e-05
5.42629e-08
2.12292e-05
7.57551e-08
2.12148e-05
9.98146e-08
2.11986e-05
1.26647e-07
2.11805e-05
1.56471e-07
2.11607e-05
1.89521e-07
2.11394e-05
2.26042e-07
2.11167e-05
2.66284e-07
2.10932e-05
3.10502e-07
2.10693e-05
3.58939e-07
2.10457e-05
4.1182e-07
2.10233e-05
4.6933e-07
2.10035e-05
5.31597e-07
2.09875e-05
5.98656e-07
2.09773e-05
6.70419e-07
2.09749e-05
7.46629e-07
2.09827e-05
8.26813e-07
2.10034e-05
9.1023e-07
2.10397e-05
9.95815e-07
2.10943e-05
1.08214e-06
2.11694e-05
1.1674e-06
2.12665e-05
1.2494e-06
2.13855e-05
1.32568e-06
2.15249e-05
1.39367e-06
1.45099e-06
2.1681e-05
2.29005e-05
-2.7073e-08
2.29063e-05
-4.60635e-08
2.29134e-05
-5.27509e-08
2.29204e-05
-4.64981e-08
2.29261e-05
-2.7952e-08
2.29294e-05
1.72387e-10
2.29295e-05
3.33839e-08
2.29259e-05
6.65171e-08
2.29188e-05
9.50703e-08
2.29087e-05
1.16172e-07
2.28964e-05
1.28866e-07
2.28828e-05
1.33794e-07
2.28685e-05
1.32555e-07
2.28542e-05
1.27059e-07
2.28404e-05
1.19044e-07
2.28273e-05
1.09836e-07
2.28152e-05
1.00298e-07
2.2804e-05
9.09003e-08
2.27939e-05
8.18338e-08
2.27848e-05
7.31243e-08
2.27766e-05
6.47189e-08
2.27694e-05
5.65425e-08
2.2763e-05
4.85266e-08
2.27575e-05
4.06236e-08
2.27528e-05
3.28078e-08
2.27488e-05
2.5073e-08
2.27456e-05
1.74281e-08
2.27431e-05
9.89384e-09
2.27412e-05
2.49883e-09
2.274e-05
-4.72173e-09
2.27393e-05
-1.17297e-08
2.27392e-05
-1.84815e-08
2.27395e-05
-2.49318e-08
2.27403e-05
-3.10326e-08
2.27415e-05
-3.67333e-08
2.2743e-05
-4.19818e-08
2.27447e-05
-4.6724e-08
2.27466e-05
-5.09039e-08
2.27486e-05
-5.44649e-08
2.27506e-05
-5.73473e-08
2.27525e-05
-5.94905e-08
2.27543e-05
-6.08319e-08
2.27558e-05
-6.13068e-08
2.2757e-05
-6.0848e-08
2.27578e-05
-5.93858e-08
2.2758e-05
-5.68472e-08
2.27575e-05
-5.31557e-08
2.27563e-05
-4.82308e-08
2.27543e-05
-4.19871e-08
2.27513e-05
-3.43343e-08
2.27472e-05
-2.51758e-08
2.2742e-05
-1.44093e-08
2.27356e-05
-1.9256e-09
2.27278e-05
1.23906e-08
2.27187e-05
2.8663e-08
2.27081e-05
4.70238e-08
2.2696e-05
6.76131e-08
2.26825e-05
9.05784e-08
2.26675e-05
1.16074e-07
2.26512e-05
1.4426e-07
2.26337e-05
1.75299e-07
2.26151e-05
2.09355e-07
2.25959e-05
2.46588e-07
2.25763e-05
2.87149e-07
2.2557e-05
3.31167e-07
2.25384e-05
3.78749e-07
2.25216e-05
4.29956e-07
2.25074e-05
4.84795e-07
2.24971e-05
5.43198e-07
2.2492e-05
6.04999e-07
2.24938e-05
6.69914e-07
2.25041e-05
7.37513e-07
2.2525e-05
8.07199e-07
2.25583e-05
8.78184e-07
2.26058e-05
9.4948e-07
2.26693e-05
1.0199e-06
2.27498e-05
1.08806e-06
2.2848e-05
1.15247e-06
2.29633e-05
1.21154e-06
2.30944e-05
1.26376e-06
1.30786e-06
2.32387e-05
2.45045e-05
-3.04626e-08
2.45107e-05
-5.21611e-08
2.45183e-05
-6.03127e-08
2.45261e-05
-5.42428e-08
2.45328e-05
-3.45778e-08
2.45372e-05
-4.14707e-09
2.45384e-05
3.22665e-08
2.45359e-05
6.90677e-08
2.45299e-05
1.01282e-07
2.45206e-05
1.25624e-07
2.45088e-05
1.40859e-07
2.44953e-05
1.47508e-07
2.44809e-05
1.47193e-07
2.44663e-05
1.41939e-07
2.44519e-05
1.33647e-07
2.44383e-05
1.23807e-07
2.44255e-05
1.13422e-07
2.44137e-05
1.03071e-07
2.44029e-05
9.30186e-08
2.43932e-05
8.33346e-08
2.43844e-05
7.39904e-08
2.43765e-05
6.49207e-08
2.43695e-05
5.60606e-08
2.43633e-05
4.73607e-08
2.4358e-05
3.87933e-08
2.43533e-05
3.035e-08
2.43494e-05
2.20392e-08
2.43461e-05
1.38813e-08
2.43435e-05
5.90619e-09
2.43414e-05
-1.84952e-09
2.43398e-05
-9.34403e-09
2.43387e-05
-1.65315e-08
2.43381e-05
-2.33632e-08
2.43378e-05
-2.97868e-08
2.43377e-05
-3.57488e-08
2.43379e-05
-4.11928e-08
2.43383e-05
-4.60611e-08
2.43387e-05
-5.02941e-08
2.43392e-05
-5.38321e-08
2.43395e-05
-5.66117e-08
2.43398e-05
-5.857e-08
2.43397e-05
-5.96418e-08
2.43394e-05
-5.97601e-08
2.43386e-05
-5.88565e-08
2.43373e-05
-5.686e-08
2.43354e-05
-5.36977e-08
2.43328e-05
-4.92938e-08
2.43294e-05
-4.35694e-08
2.43251e-05
-3.64422e-08
2.43199e-05
-2.78271e-08
2.43137e-05
-1.76332e-08
2.43064e-05
-5.76804e-09
2.4298e-05
7.86404e-09
2.42883e-05
2.3365e-08
2.42775e-05
4.08394e-08
2.42655e-05
6.03954e-08
2.42524e-05
8.21436e-08
2.42381e-05
1.06195e-07
2.42229e-05
1.32661e-07
2.42069e-05
1.61648e-07
2.41904e-05
1.93258e-07
2.41735e-05
2.27582e-07
2.41568e-05
2.64696e-07
2.41407e-05
3.04652e-07
2.41257e-05
3.47475e-07
2.41127e-05
3.93149e-07
2.41024e-05
4.41612e-07
2.40959e-05
4.92737e-07
2.40941e-05
5.46328e-07
2.40983e-05
6.02101e-07
2.41099e-05
6.59673e-07
2.41302e-05
7.18555e-07
2.41606e-05
7.78142e-07
2.42024e-05
8.37714e-07
2.42568e-05
8.9644e-07
2.43246e-05
9.53393e-07
2.44063e-05
1.00758e-06
2.45021e-05
1.05799e-06
2.46113e-05
1.10364e-06
2.47326e-05
1.14365e-06
1.17734e-06
2.48644e-05
2.62209e-05
-3.40178e-08
2.62273e-05
-5.86022e-08
2.62355e-05
-6.8407e-08
2.6244e-05
-6.27226e-08
2.62517e-05
-4.21457e-08
2.62572e-05
-9.584e-09
2.62596e-05
2.99297e-08
2.62584e-05
7.04039e-08
2.62535e-05
1.064e-07
2.62451e-05
1.342e-07
2.62339e-05
1.52256e-07
2.62207e-05
1.60927e-07
2.62063e-05
1.61819e-07
2.61914e-05
1.57048e-07
2.61767e-05
1.48663e-07
2.61626e-05
1.38319e-07
2.61492e-05
1.2717e-07
2.61367e-05
1.15912e-07
2.61253e-05
1.04896e-07
2.61149e-05
9.42478e-08
2.61054e-05
8.3971e-08
2.60968e-05
7.40166e-08
2.60891e-05
6.43253e-08
2.60823e-05
5.4849e-08
2.60761e-05
4.55585e-08
2.60707e-05
3.64443e-08
2.6066e-05
2.75129e-08
2.60619e-05
1.87847e-08
2.60583e-05
1.02901e-08
2.60552e-05
2.06693e-09
2.60526e-05
-5.84026e-09
2.60503e-05
-1.33835e-08
2.60484e-05
-2.05126e-08
2.60468e-05
-2.71701e-08
2.60454e-05
-3.33009e-08
2.60441e-05
-3.88456e-08
2.60429e-05
-4.37431e-08
2.60416e-05
-4.79319e-08
2.60403e-05
-5.13495e-08
2.60388e-05
-5.39313e-08
2.6037e-05
-5.56123e-08
2.60349e-05
-5.63274e-08
2.60325e-05
-5.60087e-08
2.60295e-05
-5.45883e-08
2.60259e-05
-5.19966e-08
2.60217e-05
-4.81634e-08
2.60168e-05
-4.30161e-08
2.6011e-05
-3.64809e-08
2.60045e-05
-2.84823e-08
2.5997e-05
-1.89433e-08
2.59885e-05
-7.78511e-09
2.59791e-05
5.07088e-09
2.59687e-05
1.97041e-08
2.59573e-05
3.6196e-08
2.5945e-05
5.46271e-08
2.59318e-05
7.50761e-08
2.59178e-05
9.76188e-08
2.59031e-05
1.22326e-07
2.5888e-05
1.49261e-07
2.58726e-05
1.78477e-07
2.58574e-05
2.10015e-07
2.58425e-05
2.43896e-07
2.58286e-05
2.80121e-07
2.5816e-05
3.1866e-07
2.58055e-05
3.59451e-07
2.57978e-05
4.02389e-07
2.57935e-05
4.47324e-07
2.57937e-05
4.94049e-07
2.57992e-05
5.42295e-07
2.5811e-05
5.91727e-07
2.58302e-05
6.41942e-07
2.58577e-05
6.92461e-07
2.58945e-05
7.42742e-07
2.59415e-05
7.92177e-07
2.59992e-05
8.40111e-07
2.60681e-05
8.85859e-07
2.61484e-05
9.28729e-07
2.62397e-05
9.68053e-07
2.63415e-05
1.00322e-06
2.64527e-05
1.03374e-06
1.05924e-06
2.65721e-05
2.80574e-05
-3.77312e-08
2.80642e-05
-6.53683e-08
2.80728e-05
-7.70018e-08
2.80821e-05
-7.18941e-08
2.80906e-05
-5.0603e-08
2.80972e-05
-1.60879e-08
2.81008e-05
2.64095e-08
2.81009e-05
7.05336e-08
2.8097e-05
1.10395e-07
2.80896e-05
1.41837e-07
2.80791e-05
1.62966e-07
2.80663e-05
1.73942e-07
2.80521e-05
1.76319e-07
2.80371e-05
1.72277e-07
2.80221e-05
1.63999e-07
2.80075e-05
1.53303e-07
2.79936e-05
1.41496e-07
2.79805e-05
1.29403e-07
2.79684e-05
1.17472e-07
2.79572e-05
1.05893e-07
2.7947e-05
9.47105e-08
2.79377e-05
8.38973e-08
2.79292e-05
7.34046e-08
2.79216e-05
6.31879e-08
2.79146e-05
5.32178e-08
2.79083e-05
4.34835e-08
2.79026e-05
3.39908e-08
2.78974e-05
2.47589e-08
2.78927e-05
1.58185e-08
2.78885e-05
7.20843e-09
2.78846e-05
-1.02608e-09
2.7881e-05
-8.83469e-09
2.78777e-05
-1.61645e-08
2.78745e-05
-2.29577e-08
2.78715e-05
-2.9156e-08
2.78685e-05
-3.46993e-08
2.78654e-05
-3.95236e-08
2.78622e-05
-4.35669e-08
2.78589e-05
-4.67655e-08
2.78552e-05
-4.90549e-08
2.78513e-05
-5.03705e-08
2.78469e-05
-5.06478e-08
2.78421e-05
-4.98212e-08
2.78367e-05
-4.78254e-08
2.78307e-05
-4.45938e-08
2.7824e-05
-4.00636e-08
2.78166e-05
-3.41663e-08
2.78084e-05
-2.68376e-08
2.77994e-05
-1.8012e-08
2.77895e-05
-7.62448e-09
2.77789e-05
4.38712e-09
2.77674e-05
1.80844e-08
2.77551e-05
3.35273e-08
2.7742e-05
5.07724e-08
2.77283e-05
6.98722e-08
2.77141e-05
9.08728e-08
2.76995e-05
1.13813e-07
2.76846e-05
1.38723e-07
2.76699e-05
1.65618e-07
2.76554e-05
1.94503e-07
2.76416e-05
2.25361e-07
2.7629e-05
2.58155e-07
2.76178e-05
2.92825e-07
2.76088e-05
3.29277e-07
2.76024e-05
3.67389e-07
2.75994e-05
4.06998e-07
2.76004e-05
4.47902e-07
2.76061e-05
4.89855e-07
2.76174e-05
5.32565e-07
2.7635e-05
5.75695e-07
2.76596e-05
6.18865e-07
2.7692e-05
6.6165e-07
2.77326e-05
7.03596e-07
2.77821e-05
7.44222e-07
2.78407e-05
7.83034e-07
2.79085e-05
8.19542e-07
2.79854e-05
8.53276e-07
2.80711e-05
8.83805e-07
2.8165e-05
9.1076e-07
2.82664e-05
9.33859e-07
9.52935e-07
2.83741e-05
3.00226e-05
-4.159e-08
3.00297e-05
-7.24299e-08
3.00388e-05
-8.60493e-08
3.00486e-05
-8.16872e-08
3.00579e-05
-5.98609e-08
3.00655e-05
-2.35587e-08
3.00703e-05
2.18007e-08
3.00714e-05
6.95301e-08
3.00687e-05
1.13307e-07
3.00622e-05
1.48532e-07
3.00524e-05
1.72946e-07
3.00401e-05
1.86479e-07
3.00261e-05
1.90602e-07
3.00112e-05
1.87533e-07
2.99959e-05
1.79573e-07
2.99809e-05
1.68695e-07
2.99665e-05
1.56361e-07
2.99528e-05
1.43533e-07
2.994e-05
1.3076e-07
2.99281e-05
1.1831e-07
2.99171e-05
1.06272e-07
2.9907e-05
9.46472e-08
2.98976e-05
8.34024e-08
2.9889e-05
7.24987e-08
2.98811e-05
6.19089e-08
2.98737e-05
5.16212e-08
2.98669e-05
4.16405e-08
2.98605e-05
3.19855e-08
2.98546e-05
2.26863e-08
2.98489e-05
1.37818e-08
2.98436e-05
5.31789e-09
2.98384e-05
-2.65452e-09
2.98334e-05
-1.00807e-08
2.98285e-05
-1.69016e-08
2.98235e-05
-2.30615e-08
2.98185e-05
-2.84956e-08
2.98134e-05
-3.31416e-08
2.9808e-05
-3.69383e-08
2.98024e-05
-3.98212e-08
2.97964e-05
-4.17284e-08
2.979e-05
-4.25977e-08
2.97831e-05
-4.23679e-08
2.97757e-05
-4.09766e-08
2.97677e-05
-3.8364e-08
2.9759e-05
-3.44713e-08
2.97497e-05
-2.92406e-08
2.97397e-05
-2.26152e-08
2.97289e-05
-1.4542e-08
2.97174e-05
-4.9683e-09
2.97053e-05
6.15409e-09
2.96924e-05
1.88703e-08
2.96788e-05
3.32219e-08
2.96648e-05
4.92455e-08
2.96502e-05
6.69711e-08
2.96353e-05
8.64212e-08
2.96202e-05
1.07609e-07
2.96052e-05
1.30538e-07
2.95904e-05
1.55199e-07
2.95761e-05
1.81566e-07
2.95627e-05
2.09598e-07
2.95505e-05
2.39235e-07
2.95399e-05
2.70394e-07
2.95315e-05
3.02969e-07
2.95256e-05
3.36826e-07
2.95229e-05
3.71804e-07
2.95238e-05
4.07711e-07
2.95291e-05
4.44326e-07
2.95392e-05
4.81395e-07
2.95548e-05
5.18636e-07
2.95764e-05
5.55739e-07
2.96045e-05
5.92371e-07
2.96396e-05
6.28181e-07