/*--------------------------------*- C++ -*----------------------------------*\
| =========                 |                                                 |
| \\      /  F ield         | OpenFOAM: The Open Source CFD Toolbox           |
|  \\    /   O peration     | Version:  4.1                                   |
|   \\  /    A nd           | Web:      www.OpenFOAM.org                      |
|    \\/     M anipulation  |                                                 |
\*---------------------------------------------------------------------------*/
FoamFile
{
    version     2.0;
    format      ascii;
    class       volVectorField;
    location    "1";
    object      U;
}
// * * * * * * * * * * * * * * * * * * * * * * * * * * * * * * * * * * * * * //

dimensions      [0 1 -1 0 0 0 0];

internalField   nonuniform List<vector> 
12013
(
(0.100006 -1.46533e-06 0)
(0.100026 -2.37375e-06 0)
(0.100055 -2.61467e-06 0)
(0.100081 -2.0585e-06 0)
(0.100097 -7.34871e-07 0)
(0.100097 1.18226e-06 0)
(0.100076 3.39142e-06 0)
(0.100034 5.54288e-06 0)
(0.0999754 7.33885e-06 0)
(0.0999036 8.59927e-06 0)
(0.099825 9.28071e-06 0)
(0.0997447 9.4501e-06 0)
(0.0996666 9.23356e-06 0)
(0.0995934 8.77142e-06 0)
(0.0995263 8.18136e-06 0)
(0.0994658 7.54676e-06 0)
(0.0994118 6.91308e-06 0)
(0.0993639 6.29745e-06 0)
(0.0993217 5.69894e-06 0)
(0.099285 5.107e-06 0)
(0.0992537 4.50841e-06 0)
(0.0992276 3.89109e-06 0)
(0.0992067 3.24659e-06 0)
(0.099191 2.56827e-06 0)
(0.0991807 1.85314e-06 0)
(0.0991757 1.10053e-06 0)
(0.0991762 3.10027e-07 0)
(0.0991822 -5.16573e-07 0)
(0.0991936 -1.3749e-06 0)
(0.0992105 -2.26382e-06 0)
(0.0992329 -3.17863e-06 0)
(0.0992607 -4.11539e-06 0)
(0.0992937 -5.0683e-06 0)
(0.0993319 -6.03175e-06 0)
(0.0993751 -6.99945e-06 0)
(0.0994232 -7.9631e-06 0)
(0.0994758 -8.9151e-06 0)
(0.0995328 -9.84575e-06 0)
(0.0995938 -1.07447e-05 0)
(0.0996584 -1.1601e-05 0)
(0.0997264 -1.24007e-05 0)
(0.0997973 -1.31303e-05 0)
(0.0998705 -1.3774e-05 0)
(0.0999456 -1.43138e-05 0)
(0.100022 -1.47304e-05 0)
(0.100099 -1.50013e-05 0)
(0.100176 -1.51017e-05 0)
(0.100252 -1.50036e-05 0)
(0.100326 -1.46752e-05 0)
(0.100398 -1.40794e-05 0)
(0.100466 -1.31751e-05 0)
(0.10053 -1.19139e-05 0)
(0.100587 -1.02399e-05 0)
(0.100637 -8.08792e-06 0)
(0.100678 -5.38218e-06 0)
(0.100708 -2.03243e-06 0)
(0.100726 2.06853e-06 0)
(0.100728 7.04865e-06 0)
(0.100713 1.30617e-05 0)
(0.100678 2.02946e-05 0)
(0.100619 2.89762e-05 0)
(0.100532 3.93903e-05 0)
(0.100413 5.18906e-05 0)
(0.100256 6.6925e-05 0)
(0.100054 8.50659e-05 0)
(0.0997999 0.000107056 0)
(0.0994835 0.000133871 0)
(0.0990925 0.00016682 0)
(0.0986116 0.00020768 0)
(0.098021 0.000258922 0)
(0.0972948 0.000324047 0)
(0.0963987 0.00040813 0)
(0.095286 0.00051871 0)
(0.0938918 0.000667259 0)
(0.0921237 0.000871692 0)
(0.089848 0.00116068 0)
(0.0868655 0.00158133 0)
(0.0828588 0.00221506 0)
(0.0773299 0.00322733 0)
(0.069679 0.00508236 0)
(0.0610515 0.00987475 0)
(0.100005 -4.49318e-06 0)
(0.100026 -7.29807e-06 0)
(0.100055 -8.0473e-06 0)
(0.100081 -6.34793e-06 0)
(0.100098 -2.29203e-06 0)
(0.100097 3.58781e-06 0)
(0.100077 1.03677e-05 0)
(0.100036 1.69748e-05 0)
(0.0999775 2.24929e-05 0)
(0.0999061 2.63689e-05 0)
(0.0998277 2.84692e-05 0)
(0.0997475 2.89967e-05 0)
(0.0996695 2.83399e-05 0)
(0.0995963 2.6927e-05 0)
(0.0995292 2.51213e-05 0)
(0.0994685 2.31771e-05 0)
(0.0994143 2.1235e-05 0)
(0.0993662 1.93486e-05 0)
(0.0993239 1.75144e-05 0)
(0.099287 1.57003e-05 0)
(0.0992554 1.38664e-05 0)
(0.099229 1.19761e-05 0)
(0.0992077 1.00018e-05 0)
(0.0991917 7.92509e-06 0)
(0.099181 5.73618e-06 0)
(0.0991756 3.43202e-06 0)
(0.0991756 1.01377e-06 0)
(0.099181 -1.51373e-06 0)
(0.0991919 -4.14043e-06 0)
(0.0992081 -6.85882e-06 0)
(0.0992298 -9.65673e-06 0)
(0.0992568 -1.25201e-05 0)
(0.099289 -1.5433e-05 0)
(0.0993263 -1.83769e-05 0)
(0.0993685 -2.13319e-05 0)
(0.0994155 -2.42752e-05 0)
(0.099467 -2.71814e-05 0)
(0.0995227 -3.00212e-05 0)
(0.0995824 -3.27626e-05 0)
(0.0996458 -3.53705e-05 0)
(0.0997123 -3.78059e-05 0)
(0.0997816 -4.00248e-05 0)
(0.0998532 -4.1979e-05 0)
(0.0999266 -4.36138e-05 0)
(0.100001 -4.48694e-05 0)
(0.100076 -4.56776e-05 0)
(0.100151 -4.59619e-05 0)
(0.100226 -4.5637e-05 0)
(0.100298 -4.46049e-05 0)
(0.100368 -4.2754e-05 0)
(0.100434 -3.99563e-05 0)
(0.100495 -3.60645e-05 0)
(0.10055 -3.09087e-05 0)
(0.100598 -2.429e-05 0)
(0.100636 -1.59759e-05 0)
(0.100664 -5.69193e-06 0)
(0.10068 6.88853e-06 0)
(0.10068 2.21533e-05 0)
(0.100664 4.05693e-05 0)
(0.100627 6.27031e-05 0)
(0.100566 8.92476e-05 0)
(0.100479 0.000121059 0)
(0.100359 0.000159204 0)
(0.100203 0.000205026 0)
(0.100003 0.000260242 0)
(0.0997526 0.000327064 0)
(0.0994421 0.000408394 0)
(0.0990604 0.000508087 0)
(0.0985933 0.000631359 0)
(0.0980233 0.000785386 0)
(0.0973277 0.000980231 0)
(0.0964773 0.00123028 0)
(0.0954338 0.00155654 0)
(0.0941466 0.00199022 0)
(0.092548 0.00257858 0)
(0.0905483 0.00339396 0)
(0.0880305 0.00454721 0)
(0.0848401 0.0062063 0)
(0.0808035 0.00862141 0)
(0.0759724 0.0120918 0)
(0.0717525 0.0165017 0)
(0.100005 -7.7005e-06 0)
(0.100026 -1.25868e-05 0)
(0.100055 -1.39081e-05 0)
(0.100081 -1.10194e-05 0)
(0.100098 -4.07492e-06 0)
(0.100099 6.01545e-06 0)
(0.10008 1.76679e-05 0)
(0.10004 2.90408e-05 0)
(0.099982 3.85551e-05 0)
(0.0999115 4.52566e-05 0)
(0.0998338 4.89094e-05 0)
(0.099754 4.9856e-05 0)
(0.0996763 4.87623e-05 0)
(0.0996031 4.63609e-05 0)
(0.0995359 4.32782e-05 0)
(0.0994751 3.9951e-05 0)
(0.0994206 3.66239e-05 0)
(0.0993722 3.33905e-05 0)
(0.0993295 3.0246e-05 0)
(0.0992922 2.71366e-05 0)
(0.0992601 2.3995e-05 0)
(0.0992332 2.0759e-05 0)
(0.0992115 1.73807e-05 0)
(0.0991948 1.38294e-05 0)
(0.0991834 1.00882e-05 0)
(0.0991772 6.15115e-06 0)
(0.0991763 2.02188e-06 0)
(0.0991808 -2.29101e-06 0)
(0.0991905 -6.77457e-06 0)
(0.0992056 -1.14109e-05 0)
(0.0992259 -1.61807e-05 0)
(0.0992515 -2.10593e-05 0)
(0.0992821 -2.60199e-05 0)
(0.0993177 -3.10303e-05 0)
(0.0993581 -3.60562e-05 0)
(0.0994031 -4.10585e-05 0)
(0.0994524 -4.59926e-05 0)
(0.0995059 -5.08088e-05 0)
(0.0995631 -5.54524e-05 0)
(0.0996239 -5.98625e-05 0)
(0.0996876 -6.39725e-05 0)
(0.099754 -6.77064e-05 0)
(0.0998226 -7.09808e-05 0)
(0.0998927 -7.37034e-05 0)
(0.0999639 -7.57706e-05 0)
(0.100036 -7.70661e-05 0)
(0.100107 -7.7459e-05 0)
(0.100177 -7.6803e-05 0)
(0.100246 -7.49305e-05 0)
(0.100311 -7.16513e-05 0)
(0.100373 -6.67473e-05 0)
(0.10043 -5.99674e-05 0)
(0.10048 -5.10221e-05 0)
(0.100524 -3.95741e-05 0)
(0.100558 -2.52283e-05 0)
(0.100582 -7.51969e-06 0)
(0.100593 1.41024e-05 0)
(0.100589 4.02908e-05 0)
(0.100568 7.18304e-05 0)
(0.100528 0.00010967 0)
(0.100465 0.000154968 0)
(0.100375 0.000209145 0)
(0.100255 0.000273968 0)
(0.100099 0.000351648 0)
(0.0999024 0.000444986 0)
(0.0996576 0.000557572 0)
(0.0993568 0.000694063 0)
(0.0989904 0.000860579 0)
(0.0985466 0.00106528 0)
(0.0980112 0.00131919 0)
(0.0973667 0.00163745 0)
(0.0965919 0.00204112 0)
(0.095661 0.00255986 0)
(0.0945435 0.00323584 0)
(0.0932045 0.00412915 0)
(0.0916085 0.00532464 0)
(0.0897279 0.00693788 0)
(0.0875609 0.00911407 0)
(0.085177 0.012004 0)
(0.0828572 0.015637 0)
(0.0813629 0.0193935 0)
(0.100005 -1.1084e-05 0)
(0.100026 -1.82582e-05 0)
(0.100055 -2.02319e-05 0)
(0.100082 -1.61372e-05 0)
(0.100099 -6.17646e-06 0)
(0.100101 8.34938e-06 0)
(0.100084 2.51649e-05 0)
(0.100045 4.16178e-05 0)
(0.0999893 5.54241e-05 0)
(0.0999202 6.51949e-05 0)
(0.0998438 7.05744e-05 0)
(0.0997649 7.20435e-05 0)
(0.0996877 7.05523e-05 0)
(0.0996147 6.71547e-05 0)
(0.0995475 6.2754e-05 0)
(0.0994865 5.79839e-05 0)
(0.0994317 5.3203e-05 0)
(0.0993829 4.85498e-05 0)
(0.0993397 4.40227e-05 0)
(0.0993019 3.95477e-05 0)
(0.0992692 3.50296e-05 0)
(0.0992417 3.03797e-05 0)
(0.0992192 2.55306e-05 0)
(0.0992017 2.0438e-05 0)
(0.0991894 1.50773e-05 0)
(0.0991821 9.44076e-06 0)
(0.0991801 3.53278e-06 0)
(0.0991832 -2.6336e-06 0)
(0.0991915 -9.03954e-06 0)
(0.0992049 -1.56598e-05 0)
(0.0992234 -2.24649e-05 0)
(0.0992469 -2.94203e-05 0)
(0.0992754 -3.64862e-05 0)
(0.0993086 -4.36168e-05 0)
(0.0993464 -5.0762e-05 0)
(0.0993886 -5.78645e-05 0)
(0.0994349 -6.48598e-05 0)
(0.0994851 -7.16767e-05 0)
(0.0995389 -7.82359e-05 0)
(0.0995959 -8.44494e-05 0)
(0.0996558 -9.02197e-05 0)
(0.099718 -9.54385e-05 0)
(0.0997822 -9.99857e-05 0)
(0.0998477 -0.000103728 0)
(0.0999141 -0.000106516 0)
(0.0999806 -0.000108183 0)
(0.100047 -0.000108541 0)
(0.100111 -0.000107379 0)
(0.100174 -0.000104459 0)
(0.100234 -9.95071e-05 0)
(0.10029 -9.22132e-05 0)
(0.10034 -8.22196e-05 0)
(0.100385 -6.91135e-05 0)
(0.100422 -5.24164e-05 0)
(0.10045 -3.1569e-05 0)
(0.100467 -5.91435e-06 0)
(0.100472 2.53209e-05 0)
(0.100463 6.30515e-05 0)
(0.100437 0.000108374 0)
(0.100392 0.000162606 0)
(0.100326 0.000227349 0)
(0.100234 0.000304557 0)
(0.100113 0.000396637 0)
(0.0999588 0.00050658 0)
(0.0997668 0.00063814 0)
(0.0995312 0.000796066 0)
(0.0992454 0.000986436 0)
(0.0989019 0.0012171 0)
(0.0984921 0.00149833 0)
(0.098006 0.00184363 0)
(0.0974326 0.00227102 0)
(0.0967599 0.00280459 0)
(0.0959759 0.00347674 0)
(0.0950702 0.00433078 0)
(0.094038 0.00542375 0)
(0.0928863 0.0068279 0)
(0.0916462 0.00862693 0)
(0.0903908 0.0108983 0)
(0.0892609 0.0136648 0)
(0.0884943 0.0167719 0)
(0.0883923 0.019613 0)
(0.100005 -1.46649e-05 0)
(0.100026 -2.43402e-05 0)
(0.100054 -2.70731e-05 0)
(0.100082 -2.17924e-05 0)
(0.100101 -8.72863e-06 0)
(0.100105 1.04201e-05 0)
(0.100089 3.26664e-05 0)
(0.100053 5.45104e-05 0)
(0.0999996 7.29241e-05 0)
(0.0999328 8.60466e-05 0)
(0.0998582 9.33771e-05 0)
(0.0997807 9.55233e-05 0)
(0.0997044 9.37219e-05 0)
(0.0996318 8.93576e-05 0)
(0.0995647 8.36251e-05 0)
(0.0995035 7.73689e-05 0)
(0.0994484 7.10727e-05 0)
(0.0993991 6.49311e-05 0)
(0.0993554 5.89503e-05 0)
(0.099317 5.30398e-05 0)
(0.0992837 4.70773e-05 0)
(0.0992554 4.09492e-05 0)
(0.0992321 3.4568e-05 0)
(0.0992137 2.78753e-05 0)
(0.0992003 2.08393e-05 0)
(0.0991918 1.34498e-05 0)
(0.0991883 5.71218e-06 0)
(0.0991898 -2.35642e-06 0)
(0.0991963 -1.07296e-05 0)
(0.0992078 -1.9375e-05 0)
(0.0992241 -2.82528e-05 0)
(0.0992452 -3.7317e-05 0)
(0.0992709 -4.65137e-05 0)
(0.0993012 -5.57832e-05 0)
(0.0993358 -6.50575e-05 0)
(0.0993745 -7.42604e-05 0)
(0.0994171 -8.33066e-05 0)
(0.0994633 -9.21009e-05 0)
(0.0995127 -0.000100538 0)
(0.0995651 -0.000108502 0)
(0.0996201 -0.000115863 0)
(0.0996771 -0.000122477 0)
(0.0997358 -0.000128187 0)
(0.0997955 -0.000132816 0)
(0.0998558 -0.000136166 0)
(0.099916 -0.000138019 0)
(0.0999754 -0.000138128 0)
(0.100033 -0.000136216 0)
(0.100089 -0.000131969 0)
(0.100141 -0.000125033 0)
(0.10019 -0.000115 0)
(0.100233 -0.000101407 0)
(0.10027 -8.37178e-05 0)
(0.100299 -6.13132e-05 0)
(0.100319 -3.34724e-05 0)
(0.10033 6.47147e-07 0)
(0.100328 4.20318e-05 0)
(0.100312 9.18444e-05 0)
(0.10028 0.00015147 0)
(0.10023 0.000222567 0)
(0.10016 0.000307127 0)
(0.100066 0.000407568 0)
(0.0999457 0.000526833 0)
(0.0997955 0.000668544 0)
(0.0996114 0.000837178 0)
(0.0993894 0.00103832 0)
(0.0991246 0.00127897 0)
(0.098812 0.00156799 0)
(0.0984466 0.00191665 0)
(0.0980229 0.00233931 0)
(0.0975365 0.0028544 0)
(0.0969842 0.00348542 0)
(0.0963659 0.00426215 0)
(0.0956873 0.0052216 0)
(0.0949635 0.00640799 0)
(0.0942255 0.00787004 0)
(0.0935279 0.00965227 0)
(0.0929575 0.011774 0)
(0.0926372 0.0141873 0)
(0.0927111 0.0167039 0)
(0.0932684 0.0188989 0)
(0.100005 -1.84605e-05 0)
(0.100025 -3.08627e-05 0)
(0.100054 -3.44953e-05 0)
(0.100083 -2.8093e-05 0)
(0.100103 -1.1893e-05 0)
(0.100109 1.20166e-05 0)
(0.100096 3.99258e-05 0)
(0.100063 6.74633e-05 0)
(0.100013 9.08185e-05 0)
(0.0999495 0.000107618 0)
(0.0998774 0.000117182 0)
(0.0998018 0.000120222 0)
(0.0997267 0.000118256 0)
(0.0996549 0.000113001 0)
(0.099588 0.000105955 0)
(0.0995267 9.81908e-05 0)
(0.0994713 9.03302e-05 0)
(0.0994216 8.26362e-05 0)
(0.0993774 7.51319e-05 0)
(0.0993384 6.77155e-05 0)
(0.0993044 6.02424e-05 0)
(0.0992754 5.25754e-05 0)
(0.0992512 4.46066e-05 0)
(0.0992317 3.62641e-05 0)
(0.0992171 2.75087e-05 0)
(0.0992073 1.83273e-05 0)
(0.0992023 8.72675e-06 0)
(0.0992021 -1.27128e-06 0)
(0.0992066 -1.1634e-05 0)
(0.0992158 -2.23196e-05 0)
(0.0992295 -3.32777e-05 0)
(0.0992478 -4.44498e-05 0)
(0.0992705 -5.57679e-05 0)
(0.0992974 -6.7156e-05 0)
(0.0993283 -7.85277e-05 0)
(0.099363 -8.97866e-05 0)
(0.0994012 -0.000100825 0)
(0.0994427 -0.000111522 0)
(0.0994872 -0.000121747 0)
(0.0995342 -0.000131351 0)
(0.0995835 -0.000140172 0)
(0.0996345 -0.000148031 0)
(0.0996867 -0.000154729 0)
(0.0997398 -0.000160044 0)
(0.099793 -0.000163731 0)
(0.0998459 -0.000165517 0)
(0.0998976 -0.000165095 0)
(0.0999476 -0.000162121 0)
(0.0999951 -0.000156208 0)
(0.100039 -0.000146915 0)
(0.100079 -0.000133745 0)
(0.100113 -0.000116126 0)
(0.100142 -9.34046e-05 0)
(0.100162 -6.48272e-05 0)
(0.100174 -2.95202e-05 0)
(0.100176 1.35301e-05 0)
(0.100167 6.55014e-05 0)
(0.100144 0.000127779 0)
(0.100106 0.000201999 0)
(0.100052 0.000290099 0)
(0.0999786 0.000394392 0)
(0.0998843 0.000517644 0)
(0.0997665 0.000663191 0)
(0.0996227 0.000835066 0)
(0.0994503 0.00103818 0)
(0.0992464 0.00127852 0)
(0.0990085 0.00156344 0)
(0.0987341 0.00190198 0)
(0.0984214 0.00230525 0)
(0.0980695 0.0027869 0)
(0.0976794 0.00336359 0)
(0.097255 0.00405543 0)
(0.0968045 0.00488618 0)
(0.0963431 0.0058828 0)
(0.0958958 0.00707372 0)
(0.0955008 0.00848455 0)
(0.0952129 0.0101292 0)
(0.0951045 0.0119936 0)
(0.0952586 0.0140102 0)
(0.0957468 0.0160248 0)
(0.0965765 0.0177747 0)
(0.100005 -2.24856e-05 0)
(0.100025 -3.78573e-05 0)
(0.100054 -4.25679e-05 0)
(0.100084 -3.5161e-05 0)
(0.100105 -1.58561e-05 0)
(0.100114 1.28888e-05 0)
(0.100104 4.66464e-05 0)
(0.100076 8.01615e-05 0)
(0.10003 0.000108808 0)
(0.09997 0.000129654 0)
(0.0999012 0.000141798 0)
(0.0998282 0.000146022 0)
(0.0997548 0.000144102 0)
(0.099684 0.000138088 0)
(0.0996176 0.00012979 0)
(0.0995564 0.000120521 0)
(0.0995008 0.000111062 0)
(0.0994508 0.000101758 0)
(0.099406 9.26623e-05 0)
(0.0993665 8.3671e-05 0)
(0.0993319 7.46224e-05 0)
(0.0993021 6.53584e-05 0)
(0.099277 5.57524e-05 0)
(0.0992565 4.57197e-05 0)
(0.0992407 3.52131e-05 0)
(0.0992295 2.42169e-05 0)
(0.0992229 1.27393e-05 0)
(0.0992208 8.06478e-07 0)
(0.0992231 -1.1542e-05 0)
(0.0992299 -2.42542e-05 0)
(0.0992409 -3.72688e-05 0)
(0.0992562 -5.05135e-05 0)
(0.0992755 -6.39054e-05 0)
(0.0992987 -7.73509e-05 0)
(0.0993255 -9.07441e-05 0)
(0.0993558 -0.000103967 0)
(0.0993892 -0.000116888 0)
(0.0994255 -0.000129362 0)
(0.0994644 -0.000141226 0)
(0.0995055 -0.000152301 0)
(0.0995484 -0.000162393 0)
(0.0995927 -0.000171282 0)
(0.0996379 -0.000178728 0)
(0.0996835 -0.000184466 0)
(0.099729 -0.0001882 0)
(0.0997737 -0.000189603 0)
(0.099817 -0.000188307 0)
(0.0998583 -0.000183903 0)
(0.0998968 -0.000175931 0)
(0.0999318 -0.000163869 0)
(0.0999624 -0.00014713 0)
(0.0999876 -0.000125044 0)
(0.100007 -9.68461e-05 0)
(0.100018 -6.16613e-05 0)
(0.100021 -1.84803e-05 0)
(0.100015 3.38563e-05 0)
(0.0999979 9.66886e-05 0)
(0.0999685 0.000171581 0)
(0.0999255 0.000260362 0)
(0.0998674 0.000365176 0)
(0.0997926 0.000488546 0)
(0.0996995 0.000633453 0)
(0.0995866 0.00080343 0)
(0.0994523 0.00100267 0)
(0.0992951 0.00123618 0)
(0.0991139 0.00150991 0)
(0.0989079 0.00183095 0)
(0.098677 0.00220774 0)
(0.0984223 0.00265025 0)
(0.0981465 0.00317017 0)
(0.0978544 0.00378097 0)
(0.0975545 0.00449787 0)
(0.0972594 0.00533728 0)
(0.096988 0.00631576 0)
(0.0967669 0.00744774 0)
(0.0966313 0.00874147 0)
(0.0966256 0.0101925 0)
(0.0968003 0.0117737 0)
(0.0972039 0.013423 0)
(0.0978659 0.0150319 0)
(0.0987684 0.0164464 0)
(0.100005 -2.6754e-05 0)
(0.100025 -4.53572e-05 0)
(0.100054 -5.13638e-05 0)
(0.100084 -4.31268e-05 0)
(0.100108 -2.08213e-05 0)
(0.100119 1.27582e-05 0)
(0.100114 5.24918e-05 0)
(0.10009 9.22402e-05 0)
(0.100049 0.000126535 0)
(0.099994 0.000151843 0)
(0.0999293 0.00016698 0)
(0.0998594 0.000172752 0)
(0.0997883 0.000171165 0)
(0.0997189 0.000164587 0)
(0.0996532 0.000155145 0)
(0.0995923 0.000144409 0)
(0.0995367 0.000133336 0)
(0.0994864 0.000122375 0)
(0.0994413 0.000111624 0)
(0.0994012 0.000100991 0)
(0.099366 9.03035e-05 0)
(0.0993355 7.93878e-05 0)
(0.0993096 6.81019e-05 0)
(0.0992882 5.63482e-05 0)
(0.0992712 4.40724e-05 0)
(0.0992586 3.12554e-05 0)
(0.0992503 1.79068e-05 0)
(0.0992462 4.05712e-06 0)
(0.0992464 -1.02462e-05 0)
(0.0992506 -2.49412e-05 0)
(0.0992588 -3.99548e-05 0)
(0.0992708 -5.52002e-05 0)
(0.0992865 -7.0578e-05 0)
(0.0993057 -8.59764e-05 0)
(0.0993282 -0.000101269 0)
(0.0993537 -0.000116315 0)
(0.099382 -0.000130958 0)
(0.0994128 -0.000145026 0)
(0.0994457 -0.000158325 0)
(0.0994804 -0.000170646 0)
(0.0995165 -0.000181757 0)
(0.0995536 -0.000191401 0)
(0.0995912 -0.000199297 0)
(0.0996289 -0.000205133 0)
(0.099666 -0.000208566 0)
(0.0997021 -0.000209214 0)
(0.0997365 -0.000206652 0)
(0.0997686 -0.000200407 0)
(0.0997978 -0.000189949 0)
(0.0998232 -0.000174683 0)
(0.0998442 -0.000153939 0)
(0.0998599 -0.000126958 0)
(0.0998695 -9.28812e-05 0)
(0.099872 -5.07279e-05 0)
(0.0998666 6.18509e-07 0)
(0.0998523 6.24292e-05 0)
(0.0998279 0.000136167 0)
(0.0997927 0.000223518 0)
(0.0997453 0.00032643 0)
(0.0996849 0.000447155 0)
(0.0996103 0.000588305 0)
(0.0995207 0.000752914 0)
(0.0994153 0.000944503 0)
(0.0992934 0.00116717 0)
(0.0991548 0.00142566 0)
(0.0989997 0.00172548 0)
(0.0988289 0.00207294 0)
(0.0986444 0.00247527 0)
(0.0984493 0.00294063 0)
(0.0982485 0.00347801 0)
(0.0980493 0.00409715 0)
(0.0978618 0.00480803 0)
(0.0977002 0.00562021 0)
(0.0975827 0.00654157 0)
(0.0975325 0.00757633 0)
(0.0975776 0.0087222 0)
(0.0977493 0.00996633 0)
(0.0980792 0.0112805 0)
(0.0985923 0.0126161 0)
(0.0992973 0.0139025 0)
(0.100174 0.0150516 0)
(0.100004 -3.12785e-05 0)
(0.100025 -5.33938e-05 0)
(0.100054 -6.0954e-05 0)
(0.100085 -5.21208e-05 0)
(0.100111 -2.69963e-05 0)
(0.100125 1.13359e-05 0)
(0.100124 5.71047e-05 0)
(0.100106 0.000103304 0)
(0.10007 0.000143606 0)
(0.100021 0.000173823 0)
(0.0999606 0.000192429 0)
(0.0998945 0.000200192 0)
(0.0998261 0.000199301 0)
(0.0997586 0.000192423 0)
(0.0996941 0.000182 0)
(0.0996338 0.000169872 0)
(0.0995783 0.000157195 0)
(0.0995279 0.000144544 0)
(0.0994826 0.000132083 0)
(0.0994421 0.000119746 0)
(0.0994064 0.000107361 0)
(0.0993753 9.47456e-05 0)
(0.0993486 8.17452e-05 0)
(0.0993263 6.82512e-05 0)
(0.0993081 5.42026e-05 0)
(0.0992941 3.95772e-05 0)
(0.0992841 2.43853e-05 0)
(0.0992781 8.66277e-06 0)
(0.0992759 -7.53552e-06 0)
(0.0992775 -2.41378e-05 0)
(0.0992827 -4.10572e-05 0)
(0.0992914 -5.81922e-05 0)
(0.0993033 -7.54267e-05 0)
(0.0993184 -9.2629e-05 0)
(0.0993363 -0.000109652 0)
(0.0993568 -0.00012633 0)
(0.0993797 -0.000142482 0)
(0.0994047 -0.000157907 0)
(0.0994313 -0.000172382 0)
(0.0994594 -0.000185665 0)
(0.0994884 -0.000197486 0)
(0.0995179 -0.000207554 0)
(0.0995476 -0.000215545 0)
(0.099577 -0.000221103 0)
(0.0996055 -0.000223838 0)
(0.0996327 -0.000223317 0)
(0.0996579 -0.00021906 0)
(0.0996806 -0.000210537 0)
(0.0997002 -0.000197156 0)
(0.0997161 -0.000178255 0)
(0.0997274 -0.000153095 0)
(0.0997337 -0.000120844 0)
(0.0997341 -8.05666e-05 0)
(0.0997279 -3.12056e-05 0)
(0.0997143 2.84284e-05 0)
(0.0996927 9.9679e-05 0)
(0.0996622 0.000184077 0)
(0.0996222 0.000283365 0)
(0.0995719 0.000399522 0)
(0.0995109 0.000534803 0)
(0.0994385 0.000691773 0)
(0.0993546 0.000873352 0)
(0.099259 0.00108285 0)
(0.0991521 0.00132402 0)
(0.0990345 0.00160107 0)
(0.0989076 0.0019187 0)
(0.0987735 0.00228213 0)
(0.0986354 0.002697 0)
(0.0984976 0.00316932 0)
(0.0983663 0.00370528 0)
(0.0982493 0.00431091 0)
(0.0981571 0.00499166 0)
(0.0981023 0.00575159 0)
(0.0981007 0.00659245 0)
(0.0981702 0.00751226 0)
(0.0983306 0.0085036 0)
(0.0986022 0.00955163 0)
(0.0990026 0.0106321 0)
(0.0995434 0.0117104 0)
(0.100224 0.0127418 0)
(0.101028 0.0136765 0)
(0.100004 -3.60694e-05 0)
(0.100025 -6.19925e-05 0)
(0.100054 -7.13998e-05 0)
(0.100086 -6.22597e-05 0)
(0.100114 -3.45727e-05 0)
(0.100131 8.34775e-06 0)
(0.100135 6.01372e-05 0)
(0.100122 0.000112956 0)
(0.100093 0.000159609 0)
(0.100049 0.000195206 0)
(0.099994 0.00021781 0)
(0.0999322 0.000228075 0)
(0.0998671 0.000228318 0)
(0.0998019 0.000221473 0)
(0.0997389 0.000210289 0)
(0.0996794 0.00019689 0)
(0.0996244 0.000182651 0)
(0.0995741 0.000168299 0)
(0.0995287 0.000154088 0)
(0.0994881 0.000139995 0)
(0.099452 0.000125863 0)
(0.0994203 0.00011151 0)
(0.0993929 9.67718e-05 0)
(0.0993696 8.15331e-05 0)
(0.0993503 6.57254e-05 0)
(0.0993349 4.93246e-05 0)
(0.0993233 3.2342e-05 0)
(0.0993152 1.48181e-05 0)
(0.0993107 -3.18447e-06 0)
(0.0993096 -2.15835e-05 0)
(0.0993118 -4.02781e-05 0)
(0.0993169 -5.91517e-05 0)
(0.099325 -7.807e-05 0)
(0.0993358 -9.68812e-05 0)
(0.0993489 -0.000115416 0)
(0.0993643 -0.000133485 0)
(0.0993816 -0.000150881 0)
(0.0994005 -0.000167374 0)
(0.0994207 -0.000182712 0)
(0.0994418 -0.000196619 0)
(0.0994635 -0.000208793 0)
(0.0994853 -0.000218902 0)
(0.0995069 -0.000226586 0)
(0.0995279 -0.000231448 0)
(0.0995476 -0.000233052 0)
(0.0995658 -0.000230919 0)
(0.0995818 -0.000224524 0)
(0.0995951 -0.000213283 0)
(0.0996052 -0.000196554 0)
(0.0996116 -0.000173622 0)
(0.0996137 -0.000143694 0)
(0.0996109 -0.000105886 0)
(0.0996026 -5.92115e-05 0)
(0.0995883 -2.57081e-06 0)
(0.0995675 6.52565e-05 0)
(0.0995396 0.000145642 0)
(0.0995041 0.000240125 0)
(0.0994608 0.000350425 0)
(0.0994092 0.000478466 0)
(0.0993493 0.000626395 0)
(0.0992811 0.000796603 0)
(0.0992049 0.000991743 0)
(0.0991211 0.00121474 0)
(0.0990309 0.00146881 0)
(0.0989357 0.00175743 0)
(0.0988375 0.0020843 0)
(0.0987393 0.00245334 0)
(0.098645 0.00286851 0)
(0.0985593 0.00333373 0)
(0.0984884 0.00385258 0)
(0.0984401 0.00442805 0)
(0.0984233 0.00506206 0)
(0.0984486 0.00575491 0)
(0.098528 0.00650464 0)
(0.0986744 0.0073062 0)
(0.0989005 0.00815064 0)
(0.0992184 0.00902431 0)
(0.099637 0.00990841 0)
(0.10016 0.0107791 0)
(0.100785 0.0116088 0)
(0.101499 0.0123692 0)
(0.100004 -4.11333e-05 0)
(0.100024 -7.1171e-05 0)
(0.100054 -8.27461e-05 0)
(0.100086 -7.36339e-05 0)
(0.100116 -4.37051e-05 0)
(0.100137 3.56373e-06 0)
(0.100145 6.12859e-05 0)
(0.100138 0.000120837 0)
(0.100115 0.000174155 0)
(0.100077 0.000215609 0)
(0.100028 0.00024277 0)
(0.0999706 0.000256102 0)
(0.0999094 0.000257981 0)
(0.099847 0.000251567 0)
(0.0997858 0.000239903 0)
(0.0997276 0.000225402 0)
(0.0996733 0.000209684 0)
(0.0996234 0.00019365 0)
(0.0995781 0.000177671 0)
(0.0995374 0.000161788 0)
(0.099501 0.000145876 0)
(0.0994689 0.000129762 0)
(0.0994408 0.00011328 0)
(0.0994167 9.63102e-05 0)
(0.0993962 7.87792e-05 0)
(0.0993794 6.06608e-05 0)
(0.099366 4.19676e-05 0)
(0.0993559 2.27443e-05 0)
(0.099349 3.06196e-06 0)
(0.0993451 -1.69863e-05 0)
(0.0993441 -3.72859e-05 0)
(0.0993457 -5.7704e-05 0)
(0.0993497 -7.80882e-05 0)
(0.099356 -9.82664e-05 0)
(0.0993643 -0.000118047 0)
(0.0993744 -0.000137216 0)
(0.0993859 -0.000155541 0)
(0.0993986 -0.000172762 0)
(0.0994122 -0.0001886 0)
(0.0994262 -0.000202746 0)
(0.0994405 -0.000214866 0)
(0.0994545 -0.000224595 0)
(0.0994679 -0.000231535 0)
(0.0994804 -0.000235251 0)
(0.0994914 -0.000235272 0)
(0.0995006 -0.000231079 0)
(0.0995075 -0.000222105 0)
(0.0995117 -0.00020773 0)
(0.0995126 -0.00018727 0)
(0.09951 -0.000159977 0)
(0.0995033 -0.000125022 0)
(0.099492 -8.14953e-05 0)
(0.0994759 -2.83917e-05 0)
(0.0994544 3.5391e-05 0)
(0.0994273 0.000111068 0)
(0.0993944 0.000199984 0)
(0.0993554 0.000303621 0)
(0.0993102 0.000423603 0)
(0.099259 0.000561711 0)
(0.0992019 0.000719888 0)
(0.0991394 0.000900239 0)
(0.0990724 0.00110503 0)
(0.0990017 0.00133669 0)
(0.098929 0.00159777 0)
(0.0988561 0.00189089 0)
(0.0987856 0.00221872 0)
(0.0987208 0.00258386 0)
(0.0986654 0.00298874 0)
(0.0986244 0.00343542 0)
(0.0986033 0.00392542 0)
(0.0986086 0.00445942 0)
(0.0986478 0.005037 0)
(0.0987288 0.00565623 0)
(0.0988601 0.00631332 0)
(0.0990501 0.00700227 0)
(0.0993067 0.00771452 0)
(0.0996361 0.00843881 0)
(0.100042 0.00916129 0)
(0.100526 0.009866 0)
(0.101083 0.0105359 0)
(0.101704 0.0111546 0)
(0.100004 -4.64724e-05 0)
(0.100024 -8.0935e-05 0)
(0.100053 -9.50134e-05 0)
(0.100086 -8.62934e-05 0)
(0.100117 -5.44887e-05 0)
(0.100141 -3.1726e-06 0)
(0.100154 6.03275e-05 0)
(0.100152 0.000126661 0)
(0.100135 0.000186917 0)
(0.100103 0.000234682 0)
(0.10006 0.000266967 0)
(0.100008 0.000283961 0)
(0.0999509 0.000288026 0)
(0.0998917 0.000282495 0)
(0.0998329 0.000270688 0)
(0.0997763 0.000255308 0)
(0.099723 0.000238237 0)
(0.0996738 0.00022058 0)
(0.0996288 0.000202848 0)
(0.099588 0.00018517 0)
(0.0995515 0.000167471 0)
(0.099519 0.000149595 0)
(0.0994903 0.000131388 0)
(0.0994652 0.000112725 0)
(0.0994436 9.3533e-05 0)
(0.0994253 7.37836e-05 0)
(0.0994101 5.34914e-05 0)
(0.0993979 3.27058e-05 0)
(0.0993885 1.15056e-05 0)
(0.0993817 -1.00044e-05 0)
(0.0993773 -3.16966e-05 0)
(0.0993752 -5.3421e-05 0)
(0.0993751 -7.50077e-05 0)
(0.0993768 -9.62637e-05 0)
(0.0993801 -0.000116975 0)
(0.0993847 -0.000136905 0)
(0.0993903 -0.000155794 0)
(0.0993967 -0.000173358 0)
(0.0994035 -0.000189288 0)
(0.0994104 -0.000203248 0)
(0.0994172 -0.000214872 0)
(0.0994234 -0.000223766 0)
(0.0994287 -0.000229502 0)
(0.0994327 -0.000231614 0)
(0.0994352 -0.000229597 0)
(0.0994356 -0.000222906 0)
(0.0994337 -0.000210944 0)
(0.0994291 -0.000193065 0)
(0.0994214 -0.000168565 0)
(0.0994102 -0.000136676 0)
(0.0993954 -9.65635e-05 0)
(0.0993765 -4.73165e-05 0)
(0.0993534 1.2053e-05 0)
(0.0993259 8.26106e-05 0)
(0.0992937 0.000165524 0)
(0.099257 0.000262056 0)
(0.0992158 0.000373572 0)
(0.0991702 0.000501534 0)
(0.0991207 0.000647506 0)
(0.0990679 0.000813149 0)
(0.0990124 0.0010002 0)
(0.0989554 0.00121048 0)
(0.0988983 0.00144584 0)
(0.0988428 0.00170811 0)
(0.0987911 0.00199909 0)
(0.0987459 0.00232046 0)
(0.0987102 0.00267364 0)
(0.0986878 0.00305977 0)
(0.0986828 0.00347948 0)
(0.0987001 0.00393278 0)
(0.0987447 0.00441887 0)
(0.0988223 0.00493596 0)
(0.0989384 0.00548106 0)
(0.0990988 0.00604983 0)
(0.0993084 0.00663647 0)
(0.0995717 0.00723366 0)
(0.0998915 0.00783267 0)
(0.100269 0.00842358 0)
(0.100704 0.00899579 0)
(0.101191 0.00953867 0)
(0.101725 0.0100426 0)
(0.100004 -5.20829e-05 0)
(0.100023 -9.12758e-05 0)
(0.100053 -0.000108194 0)
(0.100086 -0.000100238 0)
(0.100118 -6.69463e-05 0)
(0.100145 -1.19233e-05 0)
(0.100161 5.71459e-05 0)
(0.100164 0.000130252 0)
(0.100152 0.000197659 0)
(0.100127 0.000252147 0)
(0.100089 0.000290102 0)
(0.100042 0.000311354 0)
(0.0999897 0.000318175 0)
(0.0999339 0.00031402 0)
(0.0998778 0.000302454 0)
(0.0998232 0.000286472 0)
(0.0997713 0.000268228 0)
(0.0997229 0.000249054 0)
(0.0996784 0.000229628 0)
(0.0996379 0.00021019 0)
(0.0996012 0.000190729 0)
(0.0995683 0.000171127 0)
(0.099539 0.000151243 0)
(0.099513 0.000130958 0)
(0.0994901 0.0001102 0)
(0.0994702 8.89411e-05 0)
(0.0994531 6.7198e-05 0)
(0.0994386 4.50255e-05 0)
(0.0994266 2.25104e-05 0)
(0.0994167 -2.31899e-07 0)
(0.0994089 -2.30604e-05 0)
(0.0994029 -4.58083e-05 0)
(0.0993985 -6.8286e-05 0)
(0.0993954 -9.02824e-05 0)
(0.0993935 -0.000111563 0)
(0.0993925 -0.000131867 0)
(0.0993921 -0.000150913 0)
(0.0993921 -0.000168392 0)
(0.0993921 -0.00018397 0)
(0.0993919 -0.000197285 0)
(0.0993912 -0.000207947 0)
(0.0993896 -0.000215537 0)
(0.0993869 -0.000219601 0)
(0.0993827 -0.000219652 0)
(0.0993768 -0.000215163 0)
(0.0993688 -0.000205571 0)
(0.0993585 -0.000190264 0)
(0.0993456 -0.000168586 0)
(0.0993298 -0.000139831 0)
(0.0993109 -0.000103237 0)
(0.0992887 -5.79853e-05 0)
(0.0992632 -3.19808e-06 0)
(0.0992341 6.20565e-05 0)
(0.0992016 0.000138783 0)
(0.0991656 0.000228051 0)
(0.0991264 0.000330997 0)
(0.0990842 0.000448814 0)
(0.0990395 0.000582753 0)
(0.0989928 0.000734108 0)
(0.0989451 0.000904208 0)
(0.0988972 0.00109439 0)
(0.0988505 0.00130598 0)
(0.0988065 0.00154025 0)
(0.0987671 0.00179837 0)
(0.0987343 0.00208139 0)
(0.0987108 0.00239009 0)
(0.0986993 0.00272501 0)
(0.098703 0.00308626 0)
(0.0987254 0.00347349 0)
(0.0987702 0.00388575 0)
(0.0988413 0.00432143 0)
(0.0989425 0.00477809 0)
(0.0990777 0.00525247 0)
(0.0992501 0.0057404 0)
(0.0994628 0.00623683 0)
(0.0997178 0.00673588 0)
(0.100016 0.00723101 0)
(0.100358 0.00771522 0)
(0.100741 0.00818146 0)
(0.101162 0.008623 0)
(0.101617 0.00903408 0)
(0.100003 -5.79552e-05 0)
(0.100023 -0.00010217 0)
(0.100051 -0.000122247 0)
(0.100085 -0.000115416 0)
(0.100118 -8.10221e-05 0)
(0.100146 -2.26462e-05 0)
(0.100165 5.1748e-05 0)
(0.100173 0.000131561 0)
(0.100166 0.000206267 0)
(0.100146 0.000267826 0)
(0.100114 0.000311946 0)
(0.100072 0.000338023 0)
(0.100024 0.000348169 0)
(0.099972 0.000345902 0)
(0.0999188 0.000335 0)
(0.0998664 0.00031874 0)
(0.0998161 0.000299558 0)
(0.0997689 0.000279029 0)
(0.099725 0.000258021 0)
(0.0996847 0.000236905 0)
(0.099648 0.000215756 0)
(0.0996147 0.000194505 0)
(0.0995846 0.000173034 0)
(0.0995576 0.000151238 0)
(0.0995334 0.000129049 0)
(0.0995118 0.000106442 0)
(0.0994926 8.34384e-05 0)
(0.0994757 6.00971e-05 0)
(0.0994608 3.65138e-05 0)
(0.0994477 1.28148e-05 0)
(0.0994362 -1.08455e-05 0)
(0.0994261 -3.42856e-05 0)
(0.0994172 -5.72974e-05 0)
(0.0994093 -7.96523e-05 0)
(0.0994021 -0.000101096 0)
(0.0993954 -0.000121348 0)
(0.0993889 -0.000140105 0)
(0.0993824 -0.000157037 0)
(0.0993756 -0.000171789 0)
(0.0993682 -0.000183981 0)
(0.0993601 -0.000193202 0)
(0.0993508 -0.000199015 0)
(0.0993403 -0.000200951 0)
(0.0993282 -0.000198508 0)
(0.0993142 -0.000191152 0)
(0.0992983 -0.000178311 0)
(0.09928 -0.000159377 0)
(0.0992594 -0.000133703 0)
(0.0992362 -0.000100599 0)
(0.0992104 -5.93328e-05 0)
(0.0991818 -9.13005e-06 0)
(0.0991505 5.08182e-05 0)
(0.0991165 0.000121371 0)
(0.0990801 0.000203431 0)
(0.0990414 0.000297934 0)
(0.0990007 0.000405848 0)
(0.0989586 0.000528162 0)
(0.0989157 0.000665879 0)
(0.0988726 0.000819997 0)
(0.0988304 0.000991492 0)
(0.0987902 0.0011813 0)
(0.0987534 0.00139026 0)
(0.0987213 0.00161913 0)
(0.0986959 0.00186851 0)
(0.0986792 0.00213877 0)
(0.0986732 0.00243007 0)
(0.0986805 0.00274222 0)
(0.0987036 0.00307469 0)
(0.0987451 0.00342652 0)
(0.0988079 0.00379624 0)
(0.0988946 0.00418188 0)
(0.0990079 0.00458089 0)
(0.0991499 0.00499017 0)
(0.0993227 0.00540606 0)
(0.0995276 0.00582442 0)
(0.0997656 0.0062407 0)
(0.100036 0.00665009 0)
(0.10034 0.0070477 0)
(0.100673 0.00742879 0)
(0.101035 0.00778901 0)