/*--------------------------------*- C++ -*----------------------------------*\
| =========                 |                                                 |
| \\      /  F ield         | OpenFOAM: The Open Source CFD Toolbox           |
|  \\    /   O peration     | Version:  4.1                                   |
|   \\  /    A nd           | Web:      www.OpenFOAM.org                      |
|    \\/     M anipulation  |                                                 |
\*---------------------------------------------------------------------------*/
FoamFile
{
    version     2.0;
    format      ascii;
    class       surfaceScalarField;
    location    "0.8";
    object      phi;
}
// * * * * * * * * * * * * * * * * * * * * * * * * * * * * * * * * * * * * * //

dimensions      [1 0 -1 0 0 0 0];

internalField   nonuniform List<scalar> 
23692
(
2.32716e-06
-1.70784e-10
2.32729e-06
-1.28527e-10
2.32713e-06
1.67026e-10
2.32643e-06
6.94192e-10
2.32509e-06
1.34871e-09
2.32311e-06
1.9887e-09
2.32062e-06
2.49133e-09
2.31784e-06
2.79344e-09
2.31495e-06
2.89821e-09
2.31211e-06
2.8545e-09
2.30939e-06
2.72609e-09
2.30684e-06
2.56868e-09
2.30444e-06
2.41857e-09
2.30217e-06
2.29274e-09
2.29999e-06
2.19393e-09
2.2979e-06
2.11725e-09
2.29587e-06
2.05552e-09
2.2939e-06
2.00179e-09
2.29199e-06
1.95084e-09
2.29012e-06
1.89932e-09
2.28832e-06
1.84552e-09
2.28657e-06
1.78854e-09
2.28489e-06
1.72817e-09
2.28328e-06
1.66452e-09
2.28174e-06
1.59781e-09
2.28027e-06
1.5282e-09
2.27887e-06
1.45597e-09
2.27756e-06
1.38135e-09
2.27633e-06
1.30458e-09
2.27518e-06
1.22584e-09
2.27411e-06
1.14545e-09
2.27313e-06
1.06367e-09
2.27224e-06
9.80961e-10
2.27143e-06
8.97784e-10
2.27071e-06
8.14735e-10
2.27008e-06
7.32418e-10
2.26953e-06
6.51666e-10
2.26906e-06
5.73366e-10
2.26868e-06
4.98411e-10
2.26836e-06
4.27933e-10
2.26812e-06
3.63044e-10
2.26794e-06
3.0503e-10
2.26781e-06
2.55182e-10
2.26772e-06
2.1493e-10
2.26766e-06
1.85777e-10
2.26763e-06
1.69375e-10
2.2676e-06
1.67449e-10
2.26755e-06
1.81817e-10
2.26748e-06
2.145e-10
2.26736e-06
2.67698e-10
2.26716e-06
3.43833e-10
2.26686e-06
4.45585e-10
2.26644e-06
5.75986e-10
2.26585e-06
7.38458e-10
2.26506e-06
9.37007e-10
2.26404e-06
1.17618e-09
2.26274e-06
1.46146e-09
2.26109e-06
1.79922e-09
2.25905e-06
2.19718e-09
2.25655e-06
2.66463e-09
2.25349e-06
3.21295e-09
2.24979e-06
3.85617e-09
2.24534e-06
4.61178e-09
2.24e-06
5.50183e-09
2.2336e-06
6.55447e-09
2.22595e-06
7.80598e-09
2.21681e-06
9.304e-09
2.20586e-06
1.11117e-08
2.1927e-06
1.33147e-08
2.17683e-06
1.60305e-08
2.15756e-06
1.94239e-08
2.13398e-06
2.37303e-08
2.10485e-06
2.92933e-08
2.06838e-06
3.66242e-08
2.02203e-06
4.64995e-08
1.96206e-06
6.01191e-08
1.88286e-06
7.93557e-08
1.77583e-06
1.07175e-07
1.62737e-06
1.48613e-07
1.41434e-06
2.1317e-07
3.26158e-07
1.08833e-06
2.49017e-06
-3.55407e-10
2.49031e-06
-2.72962e-10
2.49015e-06
3.34244e-10
2.48943e-06
1.42195e-09
2.488e-06
2.77469e-09
2.4859e-06
4.09956e-09
2.48326e-06
5.14203e-09
2.48029e-06
5.77052e-09
2.47721e-06
5.99124e-09
2.47417e-06
5.90412e-09
2.47127e-06
5.64112e-09
2.46854e-06
5.31721e-09
2.46596e-06
5.00769e-09
2.46353e-06
4.74775e-09
2.46121e-06
4.54331e-09
2.45896e-06
4.38463e-09
2.45679e-06
4.25663e-09
2.45468e-06
4.14521e-09
2.45263e-06
4.03971e-09
2.45063e-06
3.93332e-09
2.4487e-06
3.82218e-09
2.44683e-06
3.70461e-09
2.44503e-06
3.58019e-09
2.4433e-06
3.44908e-09
2.44165e-06
3.3116e-09
2.44007e-06
3.16838e-09
2.43857e-06
3.01984e-09
2.43716e-06
2.8664e-09
2.43583e-06
2.70856e-09
2.43459e-06
2.54678e-09
2.43344e-06
2.38156e-09
2.43238e-06
2.21368e-09
2.43141e-06
2.04394e-09
2.43053e-06
1.87331e-09
2.42975e-06
1.70297e-09
2.42905e-06
1.53434e-09
2.42844e-06
1.36896e-09
2.42792e-06
1.20864e-09
2.42749e-06
1.05541e-09
2.42712e-06
9.11423e-10
2.42684e-06
7.79093e-10
2.42661e-06
6.60955e-10
2.42644e-06
5.59727e-10
2.42631e-06
4.78392e-10
2.42622e-06
4.20042e-10
2.42614e-06
3.88024e-10
2.42607e-06
3.85845e-10
2.42598e-06
4.17327e-10
2.42586e-06
4.86611e-10
2.42569e-06
5.98154e-10
2.42543e-06
7.56983e-10
2.42507e-06
9.68536e-10
2.42456e-06
1.23901e-09
2.42389e-06
1.57548e-09
2.423e-06
1.98599e-09
2.42186e-06
2.47991e-09
2.42042e-06
3.06823e-09
2.41862e-06
3.76401e-09
2.41641e-06
4.58277e-09
2.4137e-06
5.54328e-09
2.41041e-06
6.66842e-09
2.40645e-06
7.98631e-09
2.4017e-06
9.53183e-09
2.39602e-06
1.13488e-08
2.38925e-06
1.34927e-08
2.3812e-06
1.6035e-08
2.3716e-06
1.90681e-08
2.36017e-06
2.27141e-08
2.34652e-06
2.71361e-08
2.33016e-06
3.25549e-08
2.31048e-06
3.92749e-08
2.28665e-06
4.77217e-08
2.25761e-06
5.84986e-08
2.22193e-06
7.24713e-08
2.1777e-06
9.08918e-08
2.12242e-06
1.15566e-07
2.0529e-06
1.49038e-07
1.96551e-06
1.94718e-07
1.85744e-06
2.56842e-07
1.73202e-06
3.38753e-07
4.30154e-07
1.62818e-06
2.6646e-06
-5.55214e-10
2.66476e-06
-4.38665e-10
2.66461e-06
4.92787e-10
2.66386e-06
2.16951e-09
2.66238e-06
4.26111e-09
2.66017e-06
6.31538e-09
2.65738e-06
7.9377e-09
2.65424e-06
8.92262e-09
2.65097e-06
9.27675e-09
2.64773e-06
9.1529e-09
2.64464e-06
8.75388e-09
2.64171e-06
8.2574e-09
2.63896e-06
7.78056e-09
2.63635e-06
7.37833e-09
2.63386e-06
7.06096e-09
2.63146e-06
6.8139e-09
2.62913e-06
6.61433e-09
2.62687e-06
6.44065e-09
2.62467e-06
6.27649e-09
2.62254e-06
6.11125e-09
2.62047e-06
5.93912e-09
2.61846e-06
5.75744e-09
2.61653e-06
5.56543e-09
2.61468e-06
5.36323e-09
2.6129e-06
5.15158e-09
2.61121e-06
4.93119e-09
2.60959e-06
4.70271e-09
2.60807e-06
4.46699e-09
2.60664e-06
4.2246e-09
2.60529e-06
3.97632e-09
2.60404e-06
3.72306e-09
2.60288e-06
3.46583e-09
2.60182e-06
3.2059e-09
2.60086e-06
2.94487e-09
2.59998e-06
2.68454e-09
2.59921e-06
2.427e-09
2.59852e-06
2.17477e-09
2.59792e-06
1.93059e-09
2.5974e-06
1.69759e-09
2.59697e-06
1.47909e-09
2.5966e-06
1.27875e-09
2.5963e-06
1.10053e-09
2.59606e-06
9.48678e-10
2.59585e-06
8.27658e-10
2.59568e-06
7.42304e-10
2.59553e-06
6.97729e-10
2.59537e-06
6.99352e-10
2.59519e-06
7.53024e-10
2.59498e-06
8.65067e-10
2.5947e-06
1.04237e-09
2.59433e-06
1.29247e-09
2.59384e-06
1.62382e-09
2.59321e-06
2.04581e-09
2.59239e-06
2.56912e-09
2.59134e-06
3.20597e-09
2.59003e-06
3.97059e-09
2.58839e-06
4.87947e-09
2.58638e-06
5.95221e-09
2.58393e-06
7.21207e-09
2.58097e-06
8.687e-09
2.57741e-06
1.04109e-08
2.57315e-06
1.24251e-08
2.56808e-06
1.4781e-08
2.56207e-06
1.75419e-08
2.55496e-06
2.07882e-08
2.54656e-06
2.46213e-08
2.53663e-06
2.91717e-08
2.52492e-06
3.46089e-08
2.51108e-06
4.11549e-08
2.49471e-06
4.91044e-08
2.47531e-06
5.88523e-08
2.45228e-06
7.09326e-08
2.42489e-06
8.60704e-08
2.39228e-06
1.05251e-07
2.35355e-06
1.29799e-07
2.30785e-06
1.61441e-07
2.25479e-06
2.0227e-07
2.19526e-06
2.54421e-07
2.13324e-06
3.19035e-07
2.0792e-06
3.9296e-07
4.595e-07
2.05002e-06
2.85124e-06
-7.72253e-10
2.85144e-06
-6.31748e-10
2.8513e-06
6.30181e-10
2.85056e-06
2.91766e-09
2.84904e-06
5.7836e-09
2.84675e-06
8.61044e-09
2.84384e-06
1.08559e-08
2.84054e-06
1.22337e-08
2.83708e-06
1.27473e-08
2.83365e-06
1.26013e-08
2.83035e-06
1.20713e-08
2.82722e-06
1.14005e-08
2.82427e-06
1.07503e-08
2.82148e-06
1.01983e-08
2.81881e-06
9.76003e-09
2.81623e-06
9.41722e-09
2.81374e-06
9.13947e-09
2.81132e-06
8.89782e-09
2.80897e-06
8.66997e-09
2.80669e-06
8.44152e-09
2.80447e-06
8.20439e-09
2.80233e-06
7.95481e-09
2.80026e-06
7.69166e-09
2.79827e-06
7.41514e-09
2.79636e-06
7.12606e-09
2.79454e-06
6.82541e-09
2.7928e-06
6.51421e-09
2.79116e-06
6.19335e-09
2.78961e-06
5.86385e-09
2.78815e-06
5.52669e-09
2.78679e-06
5.18305e-09
2.78552e-06
4.83447e-09
2.78435e-06
4.48265e-09
2.78328e-06
4.12973e-09
2.7823e-06
3.77826e-09
2.78142e-06
3.43111e-09
2.78063e-06
3.09165e-09
2.77993e-06
2.76371e-09
2.77931e-06
2.45146e-09
2.77877e-06
2.15955e-09
2.7783e-06
1.89296e-09
2.77789e-06
1.65707e-09
2.77754e-06
1.45763e-09
2.77722e-06
1.30081e-09
2.77693e-06
1.19309e-09
2.77665e-06
1.14146e-09
2.77636e-06
1.15329e-09
2.77605e-06
1.23652e-09
2.77569e-06
1.39969e-09
2.77526e-06
1.6521e-09
2.77472e-06
2.00398e-09
2.77406e-06
2.4666e-09
2.77324e-06
3.05261e-09
2.77221e-06
3.77628e-09
2.77095e-06
4.6539e-09
2.76941e-06
5.70426e-09
2.76753e-06
6.94927e-09
2.76526e-06
8.41456e-09
2.76253e-06
1.01306e-08
2.75928e-06
1.21337e-08
2.75541e-06
1.44675e-08
2.75085e-06
1.71852e-08
2.74547e-06
2.03514e-08
2.73916e-06
2.40462e-08
2.73178e-06
2.83685e-08
2.72315e-06
3.34427e-08
2.71309e-06
3.94252e-08
2.70138e-06
4.6515e-08
2.68776e-06
5.49668e-08
2.67195e-06
6.51084e-08
2.65363e-06
7.73637e-08
2.63247e-06
9.22801e-08
2.60817e-06
1.10562e-07
2.58051e-06
1.33098e-07
2.54952e-06
1.60978e-07
2.51571e-06
1.95437e-07
2.48051e-06
2.37662e-07
2.44684e-06
2.88274e-07
2.41986e-06
3.46193e-07
2.40666e-06
4.0634e-07
4.55896e-07
2.41044e-06
3.05096e-06
-1.00892e-09
3.05119e-06
-8.59315e-10
3.05109e-06
7.31371e-10
3.05037e-06
3.6422e-09
3.04885e-06
7.31064e-09
3.04652e-06
1.09505e-08
3.04352e-06
1.38652e-08
3.04008e-06
1.56801e-08
3.03645e-06
1.63892e-08
3.03282e-06
1.62459e-08
3.02931e-06
1.55981e-08
3.02598e-06
1.47564e-08
3.02282e-06
1.393e-08
3.01982e-06
1.32212e-08
3.01696e-06
1.26535e-08
3.0142e-06
1.22062e-08
3.01154e-06
1.18423e-08
3.00895e-06
1.15255e-08
3.00644e-06
1.12279e-08
3.00399e-06
1.09309e-08
3.00163e-06
1.06242e-08
2.99934e-06
1.03028e-08
2.99712e-06
9.96499e-09
2.995e-06
9.61095e-09
2.99295e-06
9.24161e-09
2.991e-06
8.85815e-09
2.98913e-06
8.46185e-09
2.98736e-06
8.05391e-09
2.98568e-06
7.63551e-09
2.9841e-06
7.20801e-09
2.98261e-06
6.77298e-09
2.98122e-06
6.3323e-09
2.97993e-06
5.88826e-09
2.97874e-06
5.44363e-09
2.97764e-06
5.00156e-09
2.97663e-06
4.56586e-09
2.97572e-06
4.14085e-09
2.97489e-06
3.73132e-09
2.97415e-06
3.3427e-09
2.97348e-06
2.98087e-09
2.97287e-06
2.65215e-09
2.97233e-06
2.3634e-09
2.97182e-06
2.12197e-09
2.97136e-06
1.93564e-09
2.97091e-06
1.81271e-09
2.97046e-06
1.76194e-09
2.97e-06
1.7927e-09
2.96951e-06
1.91501e-09
2.96895e-06
2.13963e-09
2.96832e-06
2.47825e-09
2.96757e-06
2.94365e-09
2.96668e-06
3.54992e-09
2.96561e-06
4.31276e-09
2.96434e-06
5.24984e-09
2.96281e-06
6.38121e-09
2.96099e-06
7.7299e-09
2.95881e-06
9.32253e-09
2.95624e-06
1.11902e-08
2.95321e-06
1.33693e-08
2.94965e-06
1.59031e-08
2.94548e-06
1.88432e-08
2.94062e-06
2.22514e-08
2.93498e-06
2.62023e-08
2.92844e-06
3.07866e-08
2.92091e-06
3.6115e-08
2.91223e-06
4.23235e-08
2.90229e-06
4.95796e-08
2.89092e-06
5.80906e-08
2.87798e-06
6.81136e-08
2.86333e-06
7.99671e-08
2.84685e-06
9.40442e-08
2.82851e-06
1.10825e-07
2.80839e-06
1.30885e-07
2.7868e-06
1.54889e-07
2.76443e-06
1.83549e-07
2.74254e-06
2.17523e-07
2.72323e-06
2.57172e-07
2.7096e-06
3.02106e-07
2.70557e-06
3.5041e-07
2.71459e-06
3.97514e-07
4.35157e-07
2.73552e-06
3.26467e-06
-1.26778e-09
3.26494e-06
-1.12962e-09
3.2649e-06
7.78656e-10
3.26423e-06
4.31437e-09
3.26274e-06
8.80428e-09
3.26041e-06
1.32935e-08
3.25736e-06
1.69259e-08
3.25382e-06
1.92302e-08
3.25004e-06
2.01823e-08
3.24623e-06
2.00781e-08
3.24251e-06
1.93354e-08
3.23895e-06
1.83333e-08
3.23557e-06
1.73311e-08
3.23236e-06
1.64598e-08
3.22929e-06
1.57537e-08
3.22634e-06
1.51919e-08
3.22349e-06
1.47321e-08
3.22073e-06
1.43315e-08
3.21805e-06
1.39566e-08
3.21544e-06
1.35849e-08
3.21292e-06
1.32034e-08
3.21048e-06
1.28057e-08
3.20812e-06
1.23896e-08
3.20585e-06
1.19549e-08
3.20366e-06
1.15027e-08
3.20157e-06
1.10342e-08
3.19957e-06
1.05511e-08
3.19766e-06
1.00547e-08
3.19585e-06
9.54661e-09
3.19414e-06
9.02842e-09
3.19252e-06
8.5021e-09
3.191e-06
7.96998e-09
3.18957e-06
7.43495e-09
3.18824e-06
6.90034e-09
3.18701e-06
6.37015e-09
3.18587e-06
5.84897e-09
3.18481e-06
5.34209e-09
3.18383e-06
4.85546e-09
3.18294e-06
4.39559e-09
3.18211e-06
3.96965e-09
3.18134e-06
3.58541e-09
3.18062e-06
3.25117e-09
3.17994e-06
2.97582e-09
3.17929e-06
2.76878e-09
3.17865e-06
2.64011e-09
3.178e-06
2.60039e-09
3.17732e-06
2.66089e-09
3.17659e-06
2.83363e-09
3.1758e-06
3.13154e-09
3.17491e-06
3.56855e-09
3.1739e-06
4.15984e-09
3.17273e-06
4.92208e-09
3.17138e-06
5.87374e-09
3.16981e-06
7.0355e-09
3.16797e-06
8.43065e-09
3.16583e-06
1.00858e-08
3.16334e-06
1.20313e-08
3.16045e-06
1.43025e-08
3.1571e-06
1.69404e-08
3.15323e-06
1.9993e-08
3.14877e-06
2.35168e-08
3.14367e-06
2.75787e-08
3.13784e-06
3.22581e-08
3.1312e-06
3.765e-08
3.12367e-06
4.38674e-08
3.11517e-06
5.10462e-08
3.10562e-06
5.93487e-08
3.09496e-06
6.89695e-08
3.08316e-06
8.014e-08
3.07021e-06
9.31338e-08
3.0562e-06
1.08269e-07
3.04134e-06
1.25909e-07
3.02599e-06
1.46448e-07
3.01081e-06
1.70288e-07
2.9968e-06
1.97776e-07
2.98544e-06
2.29093e-07
2.97876e-06
2.64066e-07
2.97921e-06
3.01864e-07
2.98924e-06
3.40592e-07
3.01008e-06
3.7688e-07
4.05816e-07
3.03962e-06
3.49335e-06
-1.55151e-09
3.49368e-06
-1.45146e-09
3.49371e-06
7.52946e-10
3.49312e-06
4.90272e-09
3.49171e-06
1.02218e-08
3.48942e-06
1.55909e-08
3.48637e-06
1.99911e-08
3.48277e-06
2.28452e-08
3.47886e-06
2.40996e-08
3.47487e-06
2.40836e-08
3.47095e-06
2.328e-08
3.46717e-06
2.21357e-08
3.46356e-06
2.0963e-08
3.46013e-06
1.99253e-08
3.45684e-06
1.90717e-08
3.45369e-06
1.83841e-08
3.45065e-06
1.78169e-08
3.4477e-06
1.73221e-08
3.44485e-06
1.6861e-08
3.44208e-06
1.64071e-08
3.4394e-06
1.59448e-08
3.4368e-06
1.5466e-08
3.4343e-06
1.49676e-08
3.43188e-06
1.44492e-08
3.42955e-06
1.39117e-08
3.42732e-06
1.33566e-08
3.42518e-06
1.27855e-08
3.42313e-06
1.22002e-08
3.42118e-06
1.16024e-08
3.41933e-06
1.09942e-08
3.41757e-06
1.03779e-08
3.41591e-06
9.7564e-09
3.41434e-06
9.1331e-09
3.41287e-06
8.51204e-09
3.41148e-06
7.89798e-09
3.41018e-06
7.29642e-09
3.40897e-06
6.71358e-09
3.40783e-06
6.15648e-09
3.40675e-06
5.63283e-09
3.40574e-06
5.15111e-09
3.40479e-06
4.72035e-09
3.40387e-06
4.35035e-09
3.40298e-06
4.05152e-09
3.40211e-06
3.83487e-09
3.40123e-06
3.71211e-09
3.40033e-06
3.69552e-09
3.3994e-06
3.7982e-09
3.39841e-06
4.03405e-09
3.39733e-06
4.41793e-09
3.39615e-06
4.96582e-09
3.39484e-06
5.69499e-09
3.39335e-06
6.62435e-09
3.39168e-06
7.77467e-09
3.38977e-06
9.16899e-09
3.3876e-06
1.08331e-08
3.38512e-06
1.27963e-08
3.38229e-06
1.50914e-08
3.37907e-06
1.77563e-08
3.37541e-06
2.08345e-08
3.37126e-06
2.43761e-08
3.36657e-06
2.84393e-08
3.3613e-06
3.30915e-08
3.35538e-06
3.84115e-08
3.34878e-06
4.44907e-08
3.34145e-06
5.1436e-08
3.33336e-06
5.93709e-08
3.32451e-06
6.84386e-08
3.31492e-06
7.88029e-08
3.30464e-06
9.06494e-08
3.29383e-06
1.04184e-07
3.2827e-06
1.19629e-07
3.27163e-06
1.37213e-07
3.26116e-06
1.57151e-07
3.25207e-06
1.79611e-07
3.24542e-06
2.0466e-07
3.24256e-06
2.32178e-07
3.24512e-06
2.61737e-07
3.25476e-06
2.92446e-07
3.2728e-06
3.22778e-07
3.2994e-06
3.50494e-07
3.728e-07
3.33264e-06
3.73805e-06
-1.86256e-09
3.73844e-06
-1.83323e-09
3.73856e-06
6.3555e-10
3.73809e-06
5.37549e-09
3.7368e-06
1.15195e-08
3.73461e-06
1.77917e-08
3.7316e-06
2.30096e-08
3.72798e-06
2.64806e-08
3.72399e-06
2.81081e-08
3.71985e-06
2.8242e-08
3.71572e-06
2.74229e-08
3.71172e-06
2.61634e-08
3.70788e-06
2.48307e-08
3.70421e-06
2.36253e-08
3.7007e-06
2.26155e-08
3.69734e-06
2.17901e-08
3.69409e-06
2.11029e-08
3.69096e-06
2.05021e-08
3.68793e-06
1.99445e-08
3.685e-06
1.93999e-08
3.68216e-06
1.88499e-08
3.67941e-06
1.82846e-08
3.67675e-06
1.76998e-08
3.67419e-06
1.70947e-08
3.67172e-06
1.64698e-08
3.66934e-06
1.58267e-08
3.66706e-06
1.51671e-08
3.66488e-06
1.4493e-08
3.66278e-06
1.38066e-08
3.66079e-06
1.31102e-08
3.65889e-06
1.24066e-08
3.65708e-06
1.16992e-08
3.65536e-06
1.0992e-08
3.65373e-06
1.02897e-08
3.65218e-06
9.59797e-09
3.65071e-06
8.92305e-09
3.64932e-06
8.27226e-09
3.64799e-06
7.65359e-09
3.64673e-06
7.07593e-09
3.64551e-06
6.54891e-09
3.64434e-06
6.08296e-09
3.64319e-06
5.6892e-09
3.64206e-06
5.37943e-09
3.64094e-06
5.16619e-09
3.6398e-06
5.06263e-09
3.63862e-06
5.08269e-09
3.6374e-06
5.24105e-09
3.6361e-06
5.55325e-09
3.63471e-06
6.03578e-09
3.6332e-06
6.70631e-09
3.63154e-06
7.58385e-09
3.62972e-06
8.68894e-09
3.62768e-06
1.0044e-08
3.62542e-06
1.16737e-08
3.62289e-06
1.36054e-08
3.62007e-06
1.58694e-08
3.61691e-06
1.85e-08
3.61338e-06
2.15354e-08
3.60944e-06
2.50193e-08
3.60507e-06
2.90008e-08
3.60023e-06
3.35359e-08
3.59488e-06
3.86883e-08
3.58902e-06
4.453e-08
3.58262e-06
5.11428e-08
3.57569e-06
5.86185e-08
3.56826e-06
6.70595e-08
3.56037e-06
7.65788e-08
3.55213e-06
8.72987e-08
3.54368e-06
9.93486e-08
3.53526e-06
1.12859e-07
3.52718e-06
1.27956e-07
3.5199e-06
1.44745e-07
3.51401e-06
1.63292e-07
3.51027e-06
1.83598e-07
3.50962e-06
2.05554e-07
3.51315e-06
2.28897e-07
3.52199e-06
2.53137e-07
3.53717e-06
2.77505e-07
3.55929e-06
3.00899e-07
3.5881e-06
3.21917e-07
3.39005e-07
3.62213e-06
3.99989e-06
-2.20293e-09
4.00034e-06
-2.2819e-09
4.00057e-06
4.10068e-10
4.00025e-06
5.70403e-09
3.99912e-06
1.26565e-08
3.99707e-06
1.98465e-08
3.99417e-06
2.593e-08
3.99057e-06
3.00893e-08
3.98653e-06
3.21697e-08
3.98226e-06
3.25269e-08
3.97796e-06
3.17488e-08
3.97374e-06
3.04099e-08
3.96966e-06
2.89341e-08
3.96576e-06
2.75632e-08
3.96202e-06
2.63901e-08
3.95844e-06
2.5415e-08
3.955e-06
2.45942e-08
3.95168e-06
2.38744e-08
3.94847e-06
2.3209e-08
3.94537e-06
2.25644e-08
3.94237e-06
2.19192e-08
3.93946e-06
2.12617e-08
3.93666e-06
2.05863e-08
3.93395e-06
1.98914e-08
3.93133e-06
1.91773e-08
3.92881e-06
1.84454e-08
3.92639e-06
1.76975e-08
3.92406e-06
1.69358e-08
3.92183e-06
1.61628e-08
3.91968e-06
1.53811e-08
3.91763e-06
1.45941e-08
3.91567e-06
1.38058e-08
3.91379e-06
1.30207e-08
3.91199e-06
1.22443e-08
3.91027e-06
1.14828e-08
3.90862e-06
1.07437e-08
3.90703e-06
1.00349e-08
3.9055e-06
9.36564e-09
3.90402e-06
8.74577e-09
3.90258e-06
8.1861e-09
3.90116e-06
7.69821e-09
3.89977e-06
7.29448e-09
3.89837e-06
6.98801e-09
3.89696e-06
6.79258e-09
3.89553e-06
6.72271e-09
3.89404e-06
6.79364e-09
3.8925e-06
7.02136e-09
3.89086e-06
7.42271e-09
3.88913e-06
8.01551e-09
3.88726e-06
8.81859e-09
3.88524e-06
9.85206e-09
3.88304e-06
1.11375e-08
3.88064e-06
1.26981e-08
3.87802e-06
1.45592e-08
3.87513e-06
1.67484e-08
3.87197e-06
1.92959e-08
3.8685e-06
2.22351e-08
3.8647e-06
2.5603e-08
3.86055e-06
2.94405e-08
3.85602e-06
3.37929e-08
3.85112e-06
3.87104e-08
3.84583e-06
4.42484e-08
3.84016e-06
5.04678e-08
3.83414e-06
5.74348e-08
3.82781e-06
6.52206e-08
3.82124e-06
7.39003e-08
3.81454e-06
8.35516e-08
3.80786e-06
9.42516e-08
3.80141e-06
1.06073e-07
3.79546e-06
1.19077e-07
3.79038e-06
1.33306e-07
3.78662e-06
1.4877e-07
3.78474e-06
1.65435e-07
3.78541e-06
1.83199e-07
3.78935e-06
2.01871e-07
3.79736e-06
2.21147e-07
3.81017e-06
2.40587e-07
3.82834e-06
2.59594e-07
3.85207e-06
2.77423e-07
3.88102e-06
2.93226e-07
3.0615e-07
3.91412e-06
4.28007e-06
-2.57392e-09
4.28059e-06
-2.80245e-09
4.28094e-06
6.45718e-11
4.28079e-06
5.86633e-09
4.27985e-06
1.35996e-08
4.278e-06
2.17131e-08
4.27523e-06
2.87053e-08
4.27171e-06
3.36256e-08
4.26766e-06
3.62446e-08
4.2633e-06
3.69068e-08
4.25883e-06
3.62353e-08
4.25441e-06
3.48614e-08
4.25011e-06
3.3266e-08
4.24597e-06
3.17363e-08
4.24201e-06
3.03955e-08
4.23821e-06
2.92598e-08
4.23456e-06
2.82923e-08
4.23105e-06
2.74404e-08
4.22766e-06
2.66554e-08
4.22439e-06
2.59009e-08
4.22123e-06
2.51528e-08
4.21818e-06
2.43972e-08
4.21522e-06
2.36271e-08
4.21237e-06
2.28399e-08
4.20961e-06
2.20353e-08
4.20695e-06
2.12144e-08
4.20438e-06
2.03792e-08
4.2019e-06
1.9532e-08
4.19952e-06
1.86755e-08
4.19723e-06
1.78129e-08
4.19502e-06
1.6948e-08
4.19289e-06
1.60851e-08
4.19084e-06
1.52297e-08
4.18886e-06
1.43878e-08
4.18695e-06
1.35666e-08
4.1851e-06
1.2774e-08
4.18331e-06
1.20192e-08
4.18155e-06
1.13121e-08
4.17984e-06
1.06637e-08
4.17815e-06
1.00856e-08
4.17647e-06
9.59065e-09
4.17479e-06
9.19212e-09
4.1731e-06
8.9042e-09
4.17139e-06
8.74177e-09
4.16963e-06
8.72034e-09
4.16781e-06
8.85614e-09
4.16591e-06
9.16614e-09
4.16392e-06
9.66803e-09
4.16181e-06
1.03804e-08
4.15957e-06
1.13226e-08
4.15717e-06
1.25153e-08
4.1546e-06
1.39801e-08
4.15183e-06
1.57403e-08
4.14884e-06
1.78205e-08
4.14562e-06
2.02472e-08
4.14215e-06
2.3049e-08
4.13841e-06
2.62568e-08
4.1344e-06
2.99038e-08
4.1301e-06
3.4026e-08
4.12551e-06
3.8662e-08
4.12066e-06
4.38532e-08
4.11555e-06
4.96435e-08
4.11023e-06
5.60789e-08
4.10475e-06
6.32069e-08
4.09919e-06
7.1075e-08
4.09365e-06
7.97294e-08
4.08828e-06
8.92122e-08
4.08326e-06
9.95582e-08
4.07883e-06
1.1079e-07
4.07528e-06
1.22915e-07
4.07296e-06
1.35912e-07
4.07229e-06
1.4973e-07
4.07373e-06
1.64276e-07
4.07781e-06
1.79402e-07
4.08507e-06
1.94898e-07
4.09601e-06
2.10482e-07
4.11108e-06
2.25798e-07
4.13053e-06
2.40416e-07
4.15438e-06
2.53851e-07
4.18227e-06
2.65601e-07
2.752e-07
4.21349e-06
4.57987e-06
-2.97584e-09
4.58047e-06
-3.39658e-09
4.58095e-06
-4.0671e-10
4.58097e-06
5.84989e-09
4.58025e-06
1.43273e-08
4.57861e-06
2.3361e-08
4.57603e-06
3.12981e-08
4.57263e-06
3.70485e-08
4.5686e-06
4.02927e-08
4.56418e-06
4.13464e-08
4.55959e-06
4.0854e-08
4.55498e-06
3.94967e-08
4.55047e-06
3.78118e-08
4.54611e-06
3.61354e-08
4.54192e-06
3.46261e-08
4.53791e-06
3.33216e-08
4.53406e-06
3.21958e-08
4.53036e-06
3.11994e-08
4.52679e-06
3.02835e-08
4.52336e-06
2.94096e-08
4.52004e-06
2.85511e-08
4.51683e-06
2.7692e-08
4.51372e-06
2.68235e-08
4.51072e-06
2.59418e-08
4.50781e-06
2.50461e-08
4.505e-06
2.41372e-08
4.50229e-06
2.32167e-08
4.49966e-06
2.22873e-08
4.49712e-06
2.13519e-08
4.49467e-06
2.0414e-08
4.49229e-06
1.94779e-08
4.48999e-06
1.85487e-08
4.48776e-06
1.76322e-08
4.48559e-06
1.67353e-08
4.48347e-06
1.58658e-08
4.48141e-06
1.50324e-08
4.47938e-06
1.4245e-08
4.47739e-06
1.35145e-08
4.47541e-06
1.28524e-08
4.47345e-06
1.22715e-08
4.47148e-06
1.17852e-08
4.4695e-06
1.14077e-08
4.4675e-06
1.11539e-08
4.46545e-06
1.10395e-08
4.46334e-06
1.10806e-08
4.46116e-06
1.12941e-08
4.4589e-06
1.16973e-08
4.45653e-06
1.23084e-08
4.45404e-06
1.3146e-08
4.45141e-06
1.42295e-08
4.44863e-06
1.5579e-08
4.44568e-06
1.72155e-08
4.44255e-06
1.9161e-08
4.43922e-06
2.14384e-08
4.4357e-06
2.40719e-08
4.43196e-06
2.70868e-08
4.42801e-06
3.05097e-08
4.42385e-06
3.43682e-08
4.41948e-06
3.86914e-08
4.41494e-06
4.35091e-08
4.41025e-06
4.88516e-08
4.40546e-06
5.47494e-08
4.40061e-06
6.12319e-08
4.3958e-06
6.83269e-08
4.39113e-06
7.60585e-08
4.38672e-06
8.44454e-08
4.38275e-06
9.34986e-08
4.3794e-06
1.03218e-07
4.37691e-06
1.13589e-07
4.37555e-06
1.24577e-07
4.37564e-06
1.36127e-07
4.37752e-06
1.48153e-07
4.38157e-06
1.60537e-07
4.38815e-06
1.73125e-07
4.39762e-06
1.85722e-07
4.41031e-06
1.98095e-07
4.42643e-06
2.09975e-07
4.44607e-06
2.21066e-07
4.46916e-06
2.3106e-07
4.49538e-06
2.39664e-07
2.46628e-07
4.52424e-06
4.90067e-06
-3.40786e-09
4.90134e-06
-4.0628e-09
4.90194e-06
-1.00241e-09
4.90214e-06
5.65349e-09
4.90165e-06
1.48327e-08
4.90025e-06
2.47749e-08
4.89787e-06
3.3684e-08
4.89461e-06
4.03264e-08
4.89065e-06
4.42784e-08
4.88621e-06
4.58096e-08
4.88152e-06
4.55719e-08
4.87676e-06
4.42878e-08
4.87206e-06
4.25494e-08
4.86749e-06
4.07443e-08
4.86309e-06
3.90709e-08
4.85887e-06
3.75934e-08
4.85482e-06
3.63005e-08
4.85093e-06
3.51494e-08
4.84719e-06
3.40928e-08
4.84359e-06
3.3091e-08
4.84011e-06
3.21156e-08
4.83674e-06
3.11483e-08
4.83348e-06
3.01787e-08
4.83033e-06
2.92016e-08
4.82727e-06
2.82154e-08
4.82431e-06
2.72203e-08
4.82144e-06
2.6218e-08
4.81865e-06
2.52111e-08
4.81595e-06
2.42027e-08
4.81332e-06
2.31968e-08
4.81076e-06
2.21981e-08
4.80827e-06
2.12122e-08
4.80584e-06
2.02455e-08
4.80346e-06
1.93056e-08
4.80112e-06
1.84008e-08
4.79882e-06
1.75406e-08
4.79654e-06
1.67355e-08
4.79428e-06
1.59968e-08
4.79202e-06
1.5337e-08
4.78976e-06
1.47693e-08
4.78748e-06
1.43077e-08
4.78518e-06
1.39669e-08
4.78283e-06
1.37623e-08
4.78042e-06
1.37097e-08
4.77795e-06
1.38258e-08
4.77539e-06
1.41273e-08
4.77274e-06
1.46317e-08
4.76998e-06
1.53566e-08
4.76709e-06
1.63203e-08
4.76408e-06
1.75412e-08
4.76092e-06
1.90383e-08
4.75761e-06
2.08309e-08
4.75414e-06
2.29386e-08
4.75051e-06
2.53816e-08
4.74672e-06
2.81803e-08
4.74277e-06
3.13555e-08
4.73868e-06
3.4928e-08
4.73445e-06
3.89187e-08
4.73012e-06
4.33481e-08
4.72572e-06
4.82359e-08
4.7213e-06
5.36006e-08
4.71692e-06
5.94584e-08
4.71266e-06
6.58228e-08
4.70861e-06
7.27028e-08
4.7049e-06
8.01017e-08
4.70166e-06
8.80154e-08
4.69906e-06
9.64302e-08
4.69728e-06
1.05321e-07
4.69655e-06
1.14648e-07
4.6971e-06
1.24355e-07
4.69919e-06
1.34367e-07
4.70308e-06
1.44588e-07
4.70904e-06
1.549e-07
4.71733e-06
1.65161e-07
4.72817e-06
1.75209e-07
4.74172e-06
1.84864e-07
4.75808e-06
1.93933e-07
4.77724e-06
2.02218e-07
4.79908e-06
2.09528e-07
4.82336e-06
2.15694e-07
2.20582e-07
4.84972e-06
5.24394e-06
-3.86836e-09
5.24467e-06
-4.79621e-09
5.24539e-06
-1.71462e-09
5.24576e-06
5.2866e-09
5.24548e-06
1.51233e-08
5.24432e-06
2.59553e-08
5.24216e-06
3.58538e-08
5.23907e-06
4.34392e-08
5.23519e-06
4.81725e-08
5.23077e-06
5.02622e-08
5.22601e-06
5.03536e-08
5.22113e-06
4.92021e-08
5.21627e-06
4.74513e-08
5.21152e-06
4.55412e-08
5.20692e-06
4.37138e-08
5.20251e-06
4.20642e-08
5.19827e-06
4.05996e-08
5.1942e-06
3.92869e-08
5.19028e-06
3.80824e-08
5.18651e-06
3.69465e-08
5.18286e-06
3.58493e-08
5.17933e-06
3.47708e-08
5.17592e-06
3.36988e-08
5.1726e-06
3.26267e-08
5.16939e-06
3.1552e-08
5.16626e-06
3.04744e-08
5.16322e-06
2.93953e-08
5.16026e-06
2.83172e-08
5.15738e-06
2.72435e-08
5.15456e-06
2.61785e-08
5.15181e-06
2.51274e-08
5.1491e-06
2.40962e-08
5.14645e-06
2.30918e-08
5.14383e-06
2.21222e-08
5.14125e-06
2.11964e-08
5.13868e-06
2.03244e-08
5.13613e-06
1.95171e-08
5.13357e-06
1.87863e-08
5.13101e-06
1.81449e-08
5.12842e-06
1.76063e-08
5.12581e-06
1.71848e-08
5.12315e-06
1.68953e-08
5.12043e-06
1.67532e-08
5.11765e-06
1.67742e-08
5.11479e-06
1.69748e-08
5.11184e-06
1.73712e-08
5.10879e-06
1.79801e-08
5.10563e-06
1.88185e-08
5.10236e-06
1.99032e-08
5.09897e-06
2.1251e-08
5.09545e-06
2.28789e-08
5.0918e-06
2.48035e-08
5.08803e-06
2.70413e-08
5.08413e-06
2.96086e-08
5.08013e-06
3.2521e-08
5.07603e-06
3.57939e-08
5.07186e-06
3.94414e-08
5.06765e-06
4.34766e-08
5.06343e-06
4.79111e-08
5.05926e-06
5.27542e-08
5.0552e-06
5.80128e-08
5.05132e-06
6.36898e-08
5.04771e-06
6.97844e-08
5.04447e-06
7.62897e-08
5.04173e-06
8.31926e-08
5.03963e-06
9.04721e-08
5.03831e-06
9.80978e-08
5.03796e-06
1.06029e-07
5.03874e-06
1.14213e-07
5.04087e-06
1.22584e-07
5.04452e-06
1.31063e-07
5.0499e-06
1.39557e-07
5.05718e-06
1.47961e-07
5.06653e-06
1.56157e-07
5.07806e-06
1.64018e-07
5.09186e-06
1.71411e-07
5.10793e-06
1.78204e-07
5.12621e-06
1.84267e-07
5.14659e-06
1.89483e-07
5.16886e-06
1.93757e-07
1.9702e-07
5.19275e-06
5.61124e-06
-4.35475e-09
5.61204e-06
-5.58982e-09
5.61286e-06
-2.53011e-09
5.61339e-06
4.76767e-09
5.6133e-06
1.52186e-08
5.61235e-06
2.69176e-08
5.61041e-06
3.78124e-08
5.60749e-06
4.6379e-08
5.60373e-06
5.19549e-08
5.59934e-06
5.46748e-08
5.59456e-06
5.51652e-08
5.58959e-06
5.42055e-08
5.5846e-06
5.24864e-08
5.57969e-06
5.05003e-08
5.57492e-06
4.85351e-08
5.57032e-06
4.672e-08
5.5659e-06
4.50844e-08
5.56165e-06
4.36077e-08
5.55756e-06
4.22516e-08
5.55361e-06
4.09783e-08
5.5498e-06
3.9757e-08
5.5461e-06
3.85664e-08
5.54252e-06
3.73927e-08
5.53904e-06
3.62281e-08
5.53565e-06
3.50689e-08
5.53235e-06
3.39143e-08
5.52912e-06
3.27652e-08
5.52597e-06
3.16242e-08
5.52288e-06
3.04948e-08
5.51986e-06
2.93815e-08
5.51688e-06
2.82898e-08
5.51394e-06
2.7226e-08
5.51104e-06
2.61977e-08
5.50816e-06
2.52131e-08
5.5053e-06
2.42816e-08
5.50244e-06
2.34134e-08
5.49958e-06
2.26198e-08
5.49671e-06
2.19128e-08
5.4938e-06
2.13053e-08
5.49087e-06
2.08107e-08
5.48788e-06
2.04433e-08
5.48485e-06
2.02176e-08
5.48174e-06
2.01487e-08
5.47856e-06
2.02518e-08
5.4753e-06
2.05424e-08
5.47195e-06
2.10359e-08
5.4685e-06
2.17477e-08
5.46495e-06
2.26931e-08
5.4613e-06
2.38869e-08
5.45754e-06
2.53438e-08
5.45369e-06
2.70777e-08
5.44973e-06
2.9102e-08
5.4457e-06
3.14292e-08
5.44159e-06
3.4071e-08
5.43743e-06
3.70377e-08
5.43325e-06
4.03384e-08
5.42907e-06
4.39805e-08
5.42495e-06
4.7969e-08
5.42092e-06
5.23069e-08
5.41705e-06
5.69938e-08
5.41341e-06
6.20261e-08
5.41008e-06
6.73958e-08
5.40715e-06
7.30902e-08
5.40472e-06
7.90908e-08
5.40291e-06
8.53729e-08
5.40186e-06
9.19046e-08
5.40168e-06
9.86463e-08
5.40254e-06
1.0555e-07
5.40456e-06
1.12559e-07
5.40791e-06
1.19609e-07
5.41272e-06
1.26624e-07
5.41913e-06
1.33525e-07
5.42723e-06
1.40222e-07
5.43713e-06
1.46625e-07
5.44888e-06
1.52637e-07
5.46249e-06
1.58166e-07
5.47793e-06
1.63123e-07
5.49513e-06
1.67425e-07
5.51397e-06
1.71003e-07
5.53427e-06
1.73804e-07
1.75795e-07
5.55585e-06
6.00427e-06
-4.86403e-09
6.00512e-06
-6.43461e-09
6.00602e-06
-3.43246e-09
6.00668e-06
4.12068e-09
6.00676e-06
1.51467e-08
6.00601e-06
2.76873e-08
6.00426e-06
3.95769e-08
6.00151e-06
4.91495e-08
5.99787e-06
5.56151e-08
5.99355e-06
5.9025e-08
5.98877e-06
5.99768e-08
5.98375e-06
5.92653e-08
5.97866e-06
5.76233e-08
5.97361e-06
5.55944e-08
5.96869e-06
5.35131e-08
5.96392e-06
5.15451e-08
5.95933e-06
4.97449e-08
5.95491e-06
4.81068e-08
5.95064e-06
4.66e-08
5.94652e-06
4.51895e-08
5.94253e-06
4.38452e-08
5.93866e-06
4.25445e-08
5.9349e-06
4.12725e-08
5.93123e-06
4.00201e-08
5.92766e-06
3.87826e-08
5.92416e-06
3.75586e-08
5.92073e-06
3.63486e-08
5.91736e-06
3.5155e-08
5.91405e-06
3.39813e-08
5.91079e-06
3.28321e-08
5.90756e-06
3.17133e-08
5.90436e-06
3.06313e-08
5.90118e-06
2.9594e-08
5.89801e-06
2.86097e-08
5.89484e-06
2.76881e-08
5.89166e-06
2.68396e-08
5.88846e-06
2.60752e-08
5.88523e-06
2.5407e-08
5.88196e-06
2.48476e-08
5.87865e-06
2.44101e-08
5.87527e-06
2.41083e-08
5.87184e-06
2.3956e-08
5.86833e-06
2.39674e-08
5.86474e-06
2.41568e-08
5.86107e-06
2.45382e-08
5.85731e-06
2.51255e-08
5.85347e-06
2.59323e-08
5.84953e-06
2.69717e-08
5.84552e-06
2.82559e-08
5.84142e-06
2.97965e-08
5.83726e-06
3.16042e-08
5.83304e-06
3.36884e-08
5.82878e-06
3.60572e-08
5.82451e-06
3.87172e-08
5.82026e-06
4.16733e-08
5.81605e-06
4.49283e-08
5.81194e-06
4.84828e-08
5.80796e-06
5.23348e-08
5.80418e-06
5.64792e-08
5.80066e-06
6.09076e-08
5.79747e-06
6.56079e-08
5.7947e-06
7.05636e-08
5.79244e-06
7.57539e-08
5.79077e-06
8.11525e-08
5.78982e-06
8.67281e-08
5.78968e-06
9.24436e-08
5.79047e-06
9.82561e-08
5.7923e-06
1.04117e-07
5.79528e-06
1.09972e-07
5.79953e-06
1.15761e-07
5.80513e-06
1.21422e-07
5.81216e-06
1.26886e-07
5.82069e-06
1.32086e-07
5.83075e-06
1.36951e-07
5.84237e-06
1.41415e-07
5.85551e-06
1.45413e-07
5.87013e-06
1.48888e-07
5.88614e-06
1.51788e-07
5.90345e-06
1.54075e-07
5.92191e-06
1.5572e-07
1.5671e-07
5.94137e-06
6.42482e-06
-5.39263e-09
6.42571e-06
-7.3213e-09
6.42669e-06
-4.40395e-09
6.42744e-06
3.37193e-09
6.42766e-06
1.49397e-08
6.42707e-06
2.82967e-08
6.42549e-06
4.11722e-08
6.4229e-06
5.17635e-08