/*--------------------------------*- C++ -*----------------------------------*\
| =========                 |                                                 |
| \\      /  F ield         | OpenFOAM: The Open Source CFD Toolbox           |
|  \\    /   O peration     | Version:  4.1                                   |
|   \\  /    A nd           | Web:      www.OpenFOAM.org                      |
|    \\/     M anipulation  |                                                 |
\*---------------------------------------------------------------------------*/
FoamFile
{
    version     2.0;
    format      ascii;
    class       volVectorField;
    location    "0.8";
    object      U;
}
// * * * * * * * * * * * * * * * * * * * * * * * * * * * * * * * * * * * * * //

dimensions      [0 1 -1 0 0 0 0];

internalField   nonuniform List<vector> 
12013
(
(0.100003 -6.87665e-07 0)
(0.100012 -5.24928e-07 0)
(0.100014 7.09692e-07 0)
(0.0999981 2.98844e-06 0)
(0.0999553 5.91578e-06 0)
(0.0998831 8.89416e-06 0)
(0.0997854 1.13634e-05 0)
(0.09967 1.29957e-05 0)
(0.0995464 1.37529e-05 0)
(0.0994222 1.38171e-05 0)
(0.0993025 1.34609e-05 0)
(0.0991895 1.29394e-05 0)
(0.0990836 1.24296e-05 0)
(0.0989838 1.2022e-05 0)
(0.098889 1.17377e-05 0)
(0.0987981 1.15581e-05 0)
(0.0987102 1.14495e-05 0)
(0.098625 1.13773e-05 0)
(0.0985422 1.13134e-05 0)
(0.0984618 1.12386e-05 0)
(0.0983839 1.11422e-05 0)
(0.0983086 1.10176e-05 0)
(0.0982361 1.08618e-05 0)
(0.0981666 1.06739e-05 0)
(0.0981001 1.04538e-05 0)
(0.0980369 1.02009e-05 0)
(0.0979771 9.91533e-06 0)
(0.0979208 9.59733e-06 0)
(0.097868 9.24678e-06 0)
(0.097819 8.86379e-06 0)
(0.0977738 8.449e-06 0)
(0.0977324 8.00317e-06 0)
(0.0976949 7.52836e-06 0)
(0.0976614 7.02707e-06 0)
(0.0976319 6.50326e-06 0)
(0.0976063 5.96106e-06 0)
(0.0975847 5.40705e-06 0)
(0.0975669 4.84864e-06 0)
(0.0975529 4.29418e-06 0)
(0.0975424 3.75469e-06 0)
(0.0975352 3.24189e-06 0)
(0.0975312 2.76988e-06 0)
(0.0975299 2.35393e-06 0)
(0.097531 2.01204e-06 0)
(0.097534 1.76396e-06 0)
(0.0975385 1.63233e-06 0)
(0.0975439 1.64216e-06 0)
(0.0975494 1.82135e-06 0)
(0.0975544 2.20191e-06 0)
(0.0975581 2.81961e-06 0)
(0.0975594 3.71539e-06 0)
(0.0975574 4.93597e-06 0)
(0.0975508 6.53521e-06 0)
(0.0975385 8.57517e-06 0)
(0.0975188 1.11291e-05 0)
(0.0974903 1.4282e-05 0)
(0.097451 1.81364e-05 0)
(0.0973988 2.28133e-05 0)
(0.0973313 2.84594e-05 0)
(0.0972458 3.52531e-05 0)
(0.097139 4.34136e-05 0)
(0.0970071 5.32125e-05 0)
(0.0968458 6.49903e-05 0)
(0.0966498 7.91787e-05 0)
(0.0964128 9.63316e-05 0)
(0.096127 0.000117168 0)
(0.095783 0.000142639 0)
(0.0953691 0.000174015 0)
(0.0948702 0.000213031 0)
(0.0942673 0.000262097 0)
(0.0935351 0.000324631 0)
(0.0926403 0.000405585 0)
(0.0915373 0.000512304 0)
(0.0901631 0.000655942 0)
(0.0884276 0.000853865 0)
(0.086201 0.00113376 0)
(0.0832903 0.0015409 0)
(0.0793892 0.00215311 0)
(0.074019 0.00312797 0)
(0.0666093 0.00490667 0)
(0.0582664 0.00947788 0)
(0.100003 -2.12083e-06 0)
(0.100012 -1.63873e-06 0)
(0.100015 2.13587e-06 0)
(0.0999992 9.11871e-06 0)
(0.099957 1.80974e-05 0)
(0.0998856 2.72406e-05 0)
(0.0997885 3.48275e-05 0)
(0.0996737 3.98488e-05 0)
(0.0995505 4.21869e-05 0)
(0.0994265 4.23959e-05 0)
(0.0993069 4.13125e-05 0)
(0.099194 3.97188e-05 0)
(0.099088 3.81587e-05 0)
(0.0989882 3.69093e-05 0)
(0.0988933 3.60371e-05 0)
(0.0988023 3.54858e-05 0)
(0.0987144 3.51517e-05 0)
(0.0986291 3.49288e-05 0)
(0.0985462 3.47324e-05 0)
(0.0984658 3.45043e-05 0)
(0.0983878 3.42093e-05 0)
(0.0983124 3.38285e-05 0)
(0.0982398 3.3353e-05 0)
(0.0981702 3.27799e-05 0)
(0.0981036 3.21074e-05 0)
(0.0980402 3.1336e-05 0)
(0.0979802 3.04652e-05 0)
(0.0979236 2.94952e-05 0)
(0.0978706 2.84263e-05 0)
(0.0978212 2.72585e-05 0)
(0.0977755 2.59933e-05 0)
(0.0977337 2.46341e-05 0)
(0.0976957 2.31872e-05 0)
(0.0976617 2.16603e-05 0)
(0.0976315 2.00645e-05 0)
(0.0976053 1.84141e-05 0)
(0.0975829 1.67278e-05 0)
(0.0975643 1.50288e-05 0)
(0.0975493 1.33438e-05 0)
(0.0975378 1.17052e-05 0)
(0.0975296 1.01497e-05 0)
(0.0975244 8.71998e-06 0)
(0.0975219 7.46349e-06 0)
(0.0975217 6.43514e-06 0)
(0.0975233 5.69558e-06 0)
(0.0975263 5.31401e-06 0)
(0.0975301 5.36685e-06 0)
(0.0975341 5.93995e-06 0)
(0.0975374 7.13052e-06 0)
(0.0975393 9.04834e-06 0)
(0.0975388 1.18193e-05 0)
(0.0975349 1.55852e-05 0)
(0.0975265 2.05104e-05 0)
(0.0975122 2.67853e-05 0)
(0.0974907 3.46322e-05 0)
(0.0974603 4.4311e-05 0)
(0.0974192 5.61319e-05 0)
(0.0973653 7.04641e-05 0)
(0.0972963 8.77525e-05 0)
(0.0972095 0.000108537 0)
(0.0971017 0.000133481 0)
(0.0969694 0.000163405 0)
(0.0968082 0.000199334 0)
(0.0966132 0.000242564 0)
(0.0963784 0.000294752 0)
(0.0960964 0.000358045 0)
(0.0957586 0.00043526 0)
(0.0953539 0.000530152 0)
(0.0948689 0.000647802 0)
(0.0942864 0.000795212 0)
(0.0935844 0.000982204 0)
(0.0927347 0.00122282 0)
(0.0916999 0.00153752 0)
(0.0904307 0.00195668 0)
(0.0888612 0.00252612 0)
(0.0869044 0.00331573 0)
(0.0844468 0.00443202 0)
(0.0813391 0.00603531 0)
(0.0774148 0.00836237 0)
(0.0727277 0.0116915 0)
(0.0686305 0.0158913 0)
(0.100003 -3.67375e-06 0)
(0.100012 -2.90894e-06 0)
(0.100015 3.52501e-06 0)
(0.100001 1.54804e-05 0)
(0.0999601 3.08891e-05 0)
(0.0998903 4.66125e-05 0)
(0.0997948 5.96912e-05 0)
(0.0996815 6.83813e-05 0)
(0.0995593 7.24672e-05 0)
(0.0994361 7.28885e-05 0)
(0.0993169 7.10756e-05 0)
(0.0992041 6.83693e-05 0)
(0.0990981 6.57068e-05 0)
(0.0989981 6.35658e-05 0)
(0.0989031 6.20659e-05 0)
(0.0988119 6.11148e-05 0)
(0.0987239 6.05355e-05 0)
(0.0986385 6.01484e-05 0)
(0.0985556 5.98091e-05 0)
(0.0984751 5.94183e-05 0)
(0.098397 5.89153e-05 0)
(0.0983216 5.82678e-05 0)
(0.0982489 5.74606e-05 0)
(0.0981791 5.64874e-05 0)
(0.0981123 5.53465e-05 0)
(0.0980487 5.40383e-05 0)
(0.0979883 5.25619e-05 0)
(0.0979313 5.09182e-05 0)
(0.0978778 4.91065e-05 0)
(0.0978279 4.71281e-05 0)
(0.0977816 4.4986e-05 0)
(0.097739 4.26862e-05 0)
(0.0977002 4.02387e-05 0)
(0.0976651 3.76575e-05 0)
(0.0976339 3.49616e-05 0)
(0.0976064 3.21762e-05 0)
(0.0975826 2.93335e-05 0)
(0.0975625 2.64726e-05 0)
(0.0975458 2.3641e-05 0)
(0.0975325 2.08927e-05 0)
(0.0975223 1.82914e-05 0)
(0.097515 1.59099e-05 0)
(0.0975102 1.38308e-05 0)
(0.0975075 1.2147e-05 0)
(0.0975066 1.09635e-05 0)
(0.0975068 1.03979e-05 0)
(0.0975077 1.05808e-05 0)
(0.0975085 1.16596e-05 0)
(0.0975086 1.38007e-05 0)
(0.0975071 1.71912e-05 0)
(0.0975032 2.20447e-05 0)
(0.0974957 2.86042e-05 0)
(0.0974836 3.71484e-05 0)
(0.0974657 4.80009e-05 0)
(0.0974405 6.15377e-05 0)
(0.0974064 7.82004e-05 0)
(0.0973617 9.85106e-05 0)
(0.0973044 0.000123091 0)
(0.0972323 0.000152689 0)
(0.0971428 0.000188208 0)
(0.0970329 0.000230755 0)
(0.0968992 0.000281691 0)
(0.0967378 0.000342713 0)
(0.0965441 0.00041595 0)
(0.0963126 0.000504108 0)
(0.0960368 0.000610664 0)
(0.0957091 0.000740137 0)
(0.0953201 0.00089848 0)
(0.0948584 0.00109364 0)
(0.0943104 0.00133637 0)
(0.0936591 0.00164144 0)
(0.0928841 0.00202939 0)
(0.0919602 0.00252913 0)
(0.0908578 0.00318168 0)
(0.0895431 0.00404532 0)
(0.0879815 0.00520195 0)
(0.0861464 0.0067624 0)
(0.0840362 0.00886438 0)
(0.0817184 0.0116477 0)
(0.0794655 0.0151298 0)
(0.0780089 0.0186984 0)
(0.100003 -5.35508e-06 0)
(0.100012 -4.3769e-06 0)
(0.100017 4.79389e-06 0)
(0.100003 2.19399e-05 0)
(0.0999648 4.41188e-05 0)
(0.0998975 6.68267e-05 0)
(0.0998048 8.57949e-05 0)
(0.0996939 9.84867e-05 0)
(0.0995737 0.000104556 0)
(0.0994517 0.000105325 0)
(0.0993332 0.000102836 0)
(0.0992206 9.90151e-05 0)
(0.0991146 9.52178e-05 0)
(0.0990144 9.21424e-05 0)
(0.0989192 8.99727e-05 0)
(0.0988279 8.85857e-05 0)
(0.0987398 8.77334e-05 0)
(0.0986544 8.71615e-05 0)
(0.0985714 8.6664e-05 0)
(0.0984909 8.60983e-05 0)
(0.0984129 8.53777e-05 0)
(0.0983374 8.44551e-05 0)
(0.0982647 8.33079e-05 0)
(0.0981948 8.19266e-05 0)
(0.0981278 8.03094e-05 0)
(0.0980639 7.84558e-05 0)
(0.0980032 7.63655e-05 0)
(0.0979458 7.40393e-05 0)
(0.0978918 7.1477e-05 0)
(0.0978412 6.86806e-05 0)
(0.0977941 6.56551e-05 0)
(0.0977506 6.24098e-05 0)
(0.0977106 5.89585e-05 0)
(0.0976743 5.53223e-05 0)
(0.0976416 5.15295e-05 0)
(0.0976125 4.76163e-05 0)
(0.0975869 4.36297e-05 0)
(0.0975648 3.96265e-05 0)
(0.0975459 3.56742e-05 0)
(0.0975301 3.18521e-05 0)
(0.0975173 2.82516e-05 0)
(0.097507 2.49778e-05 0)
(0.0974991 2.21495e-05 0)
(0.097493 1.99005e-05 0)
(0.0974884 1.83813e-05 0)
(0.0974848 1.77607e-05 0)
(0.0974816 1.82267e-05 0)
(0.0974782 1.99904e-05 0)
(0.0974738 2.32896e-05 0)
(0.0974676 2.83925e-05 0)
(0.0974588 3.56028e-05 0)
(0.0974464 4.52671e-05 0)
(0.0974293 5.7782e-05 0)
(0.0974063 7.3606e-05 0)
(0.097376 9.32707e-05 0)
(0.0973369 0.000117399 0)
(0.0972874 0.000146725 0)
(0.0972256 0.00018212 0)
(0.0971494 0.000224626 0)
(0.0970564 0.0002755 0)
(0.096944 0.000336266 0)
(0.096809 0.000408796 0)
(0.096648 0.000495398 0)
(0.096457 0.000598951 0)
(0.0962312 0.000723075 0)
(0.0959654 0.000872364 0)
(0.0956533 0.00105271 0)
(0.0952877 0.00127174 0)
(0.0948602 0.00153944 0)
(0.0943614 0.00186899 0)
(0.0937807 0.00227793 0)
(0.0931065 0.00278976 0)
(0.0923273 0.00343602 0)
(0.0914331 0.00425885 0)
(0.0904195 0.00531351 0)
(0.0892933 0.00666963 0)
(0.088085 0.00840704 0)
(0.0868656 0.0105979 0)
(0.0857712 0.0132588 0)
(0.085031 0.0162321 0)
(0.0849322 0.018923 0)
(0.100003 -7.18424e-06 0)
(0.100013 -6.09815e-06 0)
(0.100018 5.82618e-06 0)
(0.100007 2.83086e-05 0)
(0.0999711 5.75382e-05 0)
(0.0999075 8.76107e-05 0)
(0.0998187 0.000112889 0)
(0.0997113 0.000129976 0)
(0.0995939 0.000138348 0)
(0.0994738 0.000139687 0)
(0.0993564 0.000136649 0)
(0.0992443 0.000131762 0)
(0.0991382 0.000126825 0)
(0.099038 0.000122781 0)
(0.0989425 0.000119895 0)
(0.0988511 0.000118025 0)
(0.0987629 0.000116859 0)
(0.0986775 0.000116069 0)
(0.0985946 0.000115388 0)
(0.0985142 0.000114629 0)
(0.0984363 0.000113677 0)
(0.098361 0.000112469 0)
(0.0982883 0.000110975 0)
(0.0982185 0.000109182 0)
(0.0981515 0.000107086 0)
(0.0980874 0.000104687 0)
(0.0980265 0.000101985 0)
(0.0979687 9.89795e-05 0)
(0.0979142 9.56731e-05 0)
(0.0978629 9.20683e-05 0)
(0.097815 8.81723e-05 0)
(0.0977705 8.39983e-05 0)
(0.0977293 7.95656e-05 0)
(0.0976916 7.49026e-05 0)
(0.0976573 7.00472e-05 0)
(0.0976263 6.50488e-05 0)
(0.0975986 5.99697e-05 0)
(0.0975741 5.48849e-05 0)
(0.0975526 4.98844e-05 0)
(0.0975339 4.50737e-05 0)
(0.0975178 4.05734e-05 0)
(0.097504 3.65221e-05 0)
(0.0974923 3.30766e-05 0)
(0.0974821 3.04137e-05 0)
(0.0974732 2.87312e-05 0)
(0.0974649 2.82504e-05 0)
(0.0974568 2.92187e-05 0)
(0.0974481 3.19131e-05 0)
(0.0974383 3.66442e-05 0)
(0.0974265 4.37623e-05 0)
(0.0974119 5.36636e-05 0)
(0.0973935 6.67977e-05 0)
(0.0973704 8.36795e-05 0)
(0.0973413 0.0001049 0)
(0.097305 0.000131145 0)
(0.0972601 0.000163212 0)
(0.0972051 0.000202038 0)
(0.0971382 0.000248728 0)
(0.0970577 0.000304598 0)
(0.0969613 0.000371224 0)
(0.0968467 0.000450504 0)
(0.0967114 0.000544747 0)
(0.0965524 0.000656773 0)
(0.0963664 0.000790059 0)
(0.0961497 0.000948918 0)
(0.0958985 0.00113874 0)
(0.0956082 0.00136631 0)
(0.0952741 0.00164021 0)
(0.0948913 0.00197138 0)
(0.0944548 0.00237383 0)
(0.0939604 0.00286545 0)
(0.0934052 0.00346915 0)
(0.0927893 0.00421392 0)
(0.0921183 0.00513568 0)
(0.0914074 0.00627719 0)
(0.090687 0.00768523 0)
(0.0900102 0.00940169 0)
(0.0894615 0.0114428 0)
(0.0891595 0.0137578 0)
(0.0892422 0.0161589 0)
(0.0897922 0.0182303 0)
(0.100003 -9.18224e-06 0)
(0.100013 -8.1369e-06 0)
(0.100019 6.48179e-06 0)
(0.100011 3.43557e-05 0)
(0.099979 7.08385e-05 0)
(0.0999202 0.000108619 0)
(0.0998364 0.000140643 0)
(0.0997338 0.000162589 0)
(0.0996201 0.000173683 0)
(0.0995027 0.000175918 0)
(0.0993867 0.000172544 0)
(0.0992753 0.000166702 0)
(0.0991695 0.000160655 0)
(0.0990691 0.00015562 0)
(0.0989735 0.000151968 0)
(0.098882 0.000149557 0)
(0.0987938 0.000148021 0)
(0.0987085 0.000146964 0)
(0.0986259 0.000146061 0)
(0.0985458 0.000145081 0)
(0.0984682 0.000143878 0)
(0.0983932 0.000142373 0)
(0.0983208 0.000140525 0)
(0.0982511 0.000138318 0)
(0.0981842 0.000135746 0)
(0.0981202 0.000132808 0)
(0.0980592 0.000129504 0)
(0.0980012 0.000125836 0)
(0.0979462 0.000121806 0)
(0.0978944 0.00011742 0)
(0.0978457 0.000112687 0)
(0.0978002 0.000107624 0)
(0.0977579 0.000102258 0)
(0.0977188 9.66262e-05 0)
(0.0976828 9.07763e-05 0)
(0.0976498 8.47718e-05 0)
(0.0976198 7.86915e-05 0)
(0.0975927 7.26307e-05 0)
(0.0975683 6.67026e-05 0)
(0.0975464 6.10393e-05 0)
(0.0975267 5.57927e-05 0)
(0.0975091 5.11359e-05 0)
(0.0974931 4.72653e-05 0)
(0.0974784 4.4401e-05 0)
(0.0974645 4.27903e-05 0)
(0.097451 4.27078e-05 0)
(0.0974373 4.44606e-05 0)
(0.0974229 4.83921e-05 0)
(0.097407 5.48866e-05 0)
(0.0973889 6.43757e-05 0)
(0.0973678 7.73461e-05 0)
(0.0973429 9.43488e-05 0)
(0.0973131 0.000116012 0)
(0.0972775 0.000143054 0)
(0.0972348 0.000176304 0)
(0.0971838 0.00021672 0)
(0.0971232 0.000265423 0)
(0.0970514 0.000323727 0)
(0.0969668 0.00039318 0)
(0.0968677 0.000475623 0)
(0.0967522 0.000573254 0)
(0.0966181 0.00068871 0)
(0.0964633 0.000825179 0)
(0.0962853 0.000986525 0)
(0.0960818 0.00117747 0)
(0.0958501 0.00140377 0)
(0.0955877 0.00167255 0)
(0.0952926 0.00199253 0)
(0.094963 0.00237449 0)
(0.0945982 0.00283167 0)
(0.0941994 0.00338028 0)
(0.0937705 0.00403984 0)
(0.09332 0.00483341 0)
(0.0928627 0.0057871 0)
(0.0924233 0.0069283 0)
(0.0920393 0.0082813 0)
(0.0917643 0.00985846 0)
(0.0916683 0.0116442 0)
(0.0918315 0.01357 0)
(0.0923219 0.0154828 0)
(0.0931435 0.0171257 0)
(0.100003 -1.13706e-05 0)
(0.100013 -1.05647e-05 0)
(0.100021 6.60287e-06 0)
(0.100016 3.9818e-05 0)
(0.0999883 8.36605e-05 0)
(0.0999353 0.000129439 0)
(0.0998577 0.000168659 0)
(0.0997609 0.000195996 0)
(0.0996519 0.000210335 0)
(0.0995379 0.000213907 0)
(0.099424 0.000210514 0)
(0.0993137 0.000203902 0)
(0.0992082 0.00019682 0)
(0.0991079 0.000190788 0)
(0.0990123 0.00018632 0)
(0.0989207 0.000183296 0)
(0.0988327 0.000181316 0)
(0.0987477 0.000179928 0)
(0.0986654 0.00017875 0)
(0.0985858 0.000177507 0)
(0.0985087 0.000176025 0)
(0.0984342 0.000174205 0)
(0.0983623 0.000171996 0)
(0.0982931 0.000169374 0)
(0.0982266 0.000166333 0)
(0.0981628 0.000162869 0)
(0.0981019 0.000158985 0)
(0.0980438 0.000154681 0)
(0.0979886 0.000149963 0)
(0.0979364 0.000144838 0)
(0.0978871 0.00013932 0)
(0.0978407 0.000133433 0)
(0.0977973 0.000127209 0)
(0.0977568 0.000120696 0)
(0.0977191 0.000113953 0)
(0.0976841 0.000107059 0)
(0.0976519 0.000100111 0)
(0.0976221 9.32242e-05 0)
(0.0975947 8.65364e-05 0)
(0.0975694 8.0208e-05 0)
(0.097546 7.44223e-05 0)
(0.0975242 6.93886e-05 0)
(0.0975037 6.53427e-05 0)
(0.0974842 6.25492e-05 0)
(0.0974651 6.1304e-05 0)
(0.097446 6.19355e-05 0)
(0.0974265 6.48102e-05 0)
(0.0974059 7.03365e-05 0)
(0.0973836 7.89702e-05 0)
(0.0973589 9.12214e-05 0)
(0.0973311 0.000107663 0)
(0.0972993 0.00012894 0)
(0.0972628 0.000155786 0)
(0.0972205 0.000189035 0)
(0.0971715 0.00022964 0)
(0.0971147 0.000278701 0)
(0.0970488 0.000337489 0)
(0.0969728 0.000407483 0)
(0.0968852 0.000490412 0)
(0.0967847 0.000588304 0)
(0.0966699 0.000703553 0)
(0.0965392 0.000838992 0)
(0.0963914 0.000997988 0)
(0.0962248 0.00118455 0)
(0.0960383 0.00140346 0)
(0.0958308 0.00166045 0)
(0.0956016 0.00196233 0)
(0.095351 0.00231724 0)
(0.09508 0.00273482 0)
(0.0947913 0.00322635 0)
(0.0944901 0.00380491 0)
(0.0941844 0.00448519 0)
(0.0938872 0.00528307 0)
(0.0936169 0.00621447 0)
(0.0933997 0.00729313 0)
(0.0932701 0.00852652 0)
(0.0932715 0.00990938 0)
(0.0934529 0.011414 0)
(0.093861 0.012978 0)
(0.0945231 0.0144943 0)
(0.0954199 0.015812 0)
(0.100003 -1.37705e-05 0)
(0.100014 -1.34543e-05 0)
(0.100023 6.02673e-06 0)
(0.100021 4.4418e-05 0)
(0.0999986 9.56173e-05 0)
(0.0999522 0.000149619 0)
(0.0998818 0.000196481 0)
(0.0997918 0.000229801 0)
(0.0996885 0.000248017 0)
(0.0995786 0.000253487 0)
(0.0994674 0.000250501 0)
(0.0993586 0.000243386 0)
(0.0992538 0.000235395 0)
(0.0991538 0.000228388 0)
(0.0990583 0.000223055 0)
(0.0989669 0.000219339 0)
(0.0988792 0.000216825 0)
(0.0987947 0.000215023 0)
(0.098713 0.000213501 0)
(0.0986341 0.000211943 0)
(0.0985578 0.000210145 0)
(0.098484 0.000207987 0)
(0.0984128 0.000205405 0)
(0.0983443 0.000202369 0)
(0.0982783 0.000198868 0)
(0.098215 0.000194898 0)
(0.0981544 0.000190461 0)
(0.0980965 0.000185561 0)
(0.0980413 0.000180203 0)
(0.0979888 0.0001744 0)
(0.0979391 0.000168171 0)
(0.097892 0.000161546 0)
(0.0978476 0.000154567 0)
(0.0978058 0.00014729 0)
(0.0977665 0.00013979 0)
(0.0977296 0.000132161 0)
(0.097695 0.000124518 0)
(0.0976626 0.000116999 0)
(0.0976322 0.000109767 0)
(0.0976035 0.000103011 0)
(0.0975763 9.69454e-05 0)
(0.0975503 9.1816e-05 0)
(0.0975252 8.78983e-05 0)
(0.0975007 8.55006e-05 0)
(0.0974763 8.49659e-05 0)
(0.0974515 8.66755e-05 0)
(0.097426 9.10527e-05 0)
(0.0973992 9.85678e-05 0)
(0.0973704 0.000109743 0)
(0.0973391 0.000125161 0)
(0.0973046 0.000145472 0)
(0.0972662 0.000171407 0)
(0.0972232 0.000203787 0)
(0.0971746 0.000243542 0)
(0.0971198 0.00029173 0)
(0.0970577 0.000349554 0)
(0.0969876 0.000418397 0)
(0.0969084 0.000499848 0)
(0.0968192 0.000595741 0)
(0.096719 0.000708201 0)
(0.096607 0.000839697 0)
(0.0964823 0.0009931 0)
(0.0963443 0.00117175 0)
(0.0961924 0.00137955 0)
(0.0960265 0.00162103 0)
(0.0958469 0.00190143 0)
(0.0956546 0.00222682 0)
(0.0954515 0.00260413 0)
(0.0952408 0.00304117 0)
(0.0950275 0.00354663 0)
(0.0948188 0.00412984 0)
(0.0946249 0.0048004 0)
(0.0944595 0.00556745 0)
(0.0943408 0.00643843 0)
(0.0942915 0.00741715 0)
(0.0943391 0.00850087 0)
(0.0945141 0.00967642 0)
(0.0948471 0.0109153 0)
(0.0953621 0.0121693 0)
(0.0960667 0.0133684 0)
(0.0969396 0.0144264 0)
(0.100003 -1.64002e-05 0)
(0.100014 -1.68707e-05 0)
(0.100025 4.60161e-06 0)
(0.100026 4.78894e-05 0)
(0.100009 0.000106329 0)
(0.0999701 0.000168699 0)
(0.0999076 0.00022363 0)
(0.0998252 0.000263573 0)
(0.0997284 0.000286386 0)
(0.0996234 0.000294429 0)
(0.0995156 0.000292384 0)
(0.0994087 0.000285125 0)
(0.0993051 0.000276411 0)
(0.0992057 0.00026848 0)
(0.0991106 0.000262247 0)
(0.0990197 0.000257753 0)
(0.0989325 0.000254607 0)
(0.0988487 0.000252294 0)
(0.0987679 0.000250345 0)
(0.0986898 0.000248408 0)
(0.0986145 0.000246249 0)
(0.0985417 0.000243724 0)
(0.0984715 0.000240755 0)
(0.0984038 0.000237306 0)
(0.0983386 0.000233358 0)
(0.098276 0.000228907 0)
(0.0982159 0.000223955 0)
(0.0981584 0.000218508 0)
(0.0981033 0.000212574 0)
(0.0980508 0.000206172 0)
(0.0980007 0.000199325 0)
(0.0979531 0.000192073 0)
(0.0979078 0.000184466 0)
(0.0978648 0.000176575 0)
(0.097824 0.000168487 0)
(0.0977853 0.000160313 0)
(0.0977485 0.000152189 0)
(0.0977135 0.000144275 0)
(0.0976801 0.000136759 0)
(0.097648 0.000129857 0)
(0.097617 0.000123819 0)
(0.0975869 0.000118922 0)
(0.0975572 0.000115483 0)
(0.0975278 0.000113849 0)
(0.0974981 0.000114411 0)
(0.0974677 0.000117598 0)
(0.0974364 0.000123885 0)
(0.0974034 0.000133799 0)
(0.0973684 0.000147921 0)
(0.0973307 0.000166897 0)
(0.0972899 0.000191443 0)
(0.0972453 0.000222357 0)
(0.0971962 0.00026053 0)
(0.0971421 0.000306964 0)
(0.0970823 0.000362784 0)
(0.0970161 0.00042926 0)
(0.0969429 0.000507831 0)
(0.096862 0.000600132 0)
(0.0967729 0.000708019 0)
(0.0966751 0.000833611 0)
(0.0965682 0.00097932 0)
(0.0964519 0.0011479 0)
(0.0963264 0.00134246 0)
(0.0961919 0.00156657 0)
(0.0960493 0.0018242 0)
(0.0959 0.00211983 0)
(0.0957462 0.0024584 0)
(0.0955909 0.00284528 0)
(0.0954387 0.00328621 0)
(0.0952954 0.00378705 0)
(0.0951692 0.00435356 0)
(0.09507 0.00499084 0)
(0.0950106 0.00570268 0)
(0.0950062 0.00649052 0)
(0.0950746 0.00735214 0)
(0.0952352 0.00827991 0)
(0.0955076 0.00925887 0)
(0.095909 0.0102648 0)
(0.0964502 0.0112632 0)
(0.0971304 0.0122101 0)
(0.0979323 0.0130566 0)
(0.100003 -1.92733e-05 0)
(0.100015 -2.08647e-05 0)
(0.100027 2.20494e-06 0)
(0.100031 5.00087e-05 0)
(0.10002 0.000115462 0)
(0.0999881 0.00018626 0)
(0.0999338 0.000249648 0)
(0.0998594 0.00029687 0)
(0.0997697 0.000325066 0)
(0.0996703 0.000336449 0)
(0.0995665 0.000335977 0)
(0.0994623 0.000329015 0)
(0.0993604 0.00031983 0)
(0.0992621 0.00031107 0)
(0.0991678 0.000303922 0)
(0.0990777 0.000298575 0)
(0.0989913 0.000294693 0)
(0.0989084 0.000291764 0)
(0.0988286 0.000289297 0)
(0.0987517 0.000286909 0)
(0.0986775 0.000284336 0)
(0.0986059 0.000281412 0)
(0.0985368 0.000278044 0)
(0.0984702 0.000274183 0)
(0.098406 0.000269807 0)
(0.0983442 0.000264909 0)
(0.0982848 0.000259491 0)
(0.0982278 0.00025356 0)
(0.098173 0.00024713 0)
(0.0981205 0.000240224 0)
(0.0980703 0.000232876 0)
(0.0980222 0.000225131 0)
(0.0979761 0.000217054 0)
(0.097932 0.000208726 0)
(0.0978898 0.000200252 0)
(0.0978493 0.000191761 0)
(0.0978104 0.000183406 0)
(0.0977729 0.000175372 0)
(0.0977365 0.000167872 0)
(0.0977011 0.00016115 0)
(0.0976665 0.000155485 0)
(0.0976322 0.00015119 0)
(0.0975982 0.000148614 0)
(0.0975639 0.000148146 0)
(0.0975291 0.000150215 0)
(0.0974934 0.000155295 0)
(0.0974564 0.000163906 0)
(0.0974177 0.000176622 0)
(0.0973768 0.000194074 0)
(0.0973333 0.000216955 0)
(0.0972867 0.000246031 0)
(0.0972365 0.000282146 0)
(0.0971823 0.000326239 0)
(0.0971236 0.000379346 0)
(0.09706 0.000442625 0)
(0.0969909 0.000517362 0)
(0.0969161 0.000604996 0)
(0.0968353 0.000707133 0)
(0.0967481 0.000825567 0)
(0.0966547 0.000962303 0)
(0.096555 0.00111957 0)
(0.0964494 0.00129986 0)
(0.0963385 0.00150591 0)
(0.0962235 0.00174072 0)
(0.0961057 0.00200755 0)
(0.0959875 0.0023099 0)
(0.0958715 0.00265144 0)
(0.0957617 0.00303588 0)
(0.0956628 0.00346688 0)
(0.0955811 0.0039478 0)
(0.095524 0.00448136 0)
(0.0955003 0.00506923 0)
(0.0955207 0.00571153 0)
(0.0955966 0.0064061 0)
(0.0957408 0.00714775 0)
(0.0959658 0.00792743 0)
(0.096283 0.00873149 0)
(0.0967013 0.00954118 0)
(0.0972243 0.0103329 0)
(0.0978484 0.0110794 0)
(0.0985609 0.0117528 0)
(0.100003 -2.23967e-05 0)
(0.100015 -2.54646e-05 0)
(0.100029 -1.23966e-06 0)
(0.100036 5.06242e-05 0)
(0.10003 0.000122773 0)
(0.100005 0.000201968 0)
(0.0999589 0.000274143 0)
(0.0998928 0.00032928 0)
(0.0998106 0.000363671 0)
(0.0997173 0.000379217 0)
(0.0996182 0.000381026 0)
(0.0995173 0.000374879 0)
(0.0994176 0.000365541 0)
(0.0993209 0.000356096 0)
(0.099228 0.000348052 0)
(0.0991389 0.000341794 0)
(0.0990537 0.000337083 0)
(0.098972 0.000333438 0)
(0.0988935 0.000330361 0)
(0.0988179 0.000327448 0)
(0.098745 0.000324408 0)
(0.0986748 0.000321054 0)
(0.098607 0.000317276 0)
(0.0985416 0.000313013 0)
(0.0984784 0.000308236 0)
(0.0984176 0.000302935 0)
(0.098359 0.000297111 0)
(0.0983025 0.000290775 0)
(0.0982481 0.000283948 0)
(0.0981957 0.000276657 0)
(0.0981453 0.000268945 0)
(0.0980968 0.00026087 0)
(0.09805 0.000252506 0)
(0.0980049 0.000243952 0)
(0.0979613 0.000235326 0)
(0.0979191 0.000226776 0)
(0.0978781 0.000218477 0)
(0.097838 0.000210635 0)
(0.0977988 0.000203486 0)
(0.0977602 0.000197301 0)
(0.097722 0.000192388 0)
(0.0976838 0.000189089 0)
(0.0976454 0.000187786 0)
(0.0976066 0.0001889 0)
(0.0975669 0.000192895 0)
(0.0975261 0.000200281 0)
(0.0974839 0.000211614 0)
(0.0974399 0.000227502 0)
(0.0973937 0.000248612 0)
(0.0973449 0.000275668 0)
(0.0972934 0.000309464 0)
(0.0972386 0.000350869 0)
(0.0971802 0.000400832 0)
(0.0971181 0.000460395 0)
(0.0970519 0.0005307 0)
(0.0969815 0.000613001 0)
(0.0969067 0.000708673 0)
(0.0968275 0.000819224 0)
(0.0967442 0.000946302 0)
(0.0966569 0.0010917 0)
(0.0965663 0.00125738 0)
(0.0964731 0.00144543 0)
(0.0963783 0.00165809 0)
(0.0962836 0.00189772 0)
(0.0961909 0.00216675 0)
(0.0961028 0.00246764 0)
(0.0960223 0.00280278 0)
(0.0959534 0.00317437 0)
(0.0959008 0.00358428 0)
(0.0958701 0.00403382 0)
(0.0958675 0.00452348 0)
(0.0959005 0.00505265 0)
(0.0959767 0.00561927 0)
(0.0961044 0.00621944 0)
(0.096292 0.00684705 0)
(0.0965468 0.00749354 0)
(0.096875 0.00814765 0)
(0.0972803 0.00879563 0)
(0.0977631 0.00942166 0)
(0.0983191 0.0100089 0)
(0.0989391 0.0105411 0)
(0.100003 -2.57678e-05 0)
(0.100015 -3.06708e-05 0)
(0.10003 -5.75006e-06 0)
(0.10004 4.96773e-05 0)
(0.100038 0.000128135 0)
(0.10002 0.000215618 0)
(0.0999816 0.000296828 0)
(0.0999236 0.000360461 0)
(0.099849 0.000401835 0)
(0.0997623 0.000422383 0)
(0.0996683 0.00042722 0)
(0.0995714 0.000422465 0)
(0.0994747 0.000413351 0)
(0.0993802 0.000403421 0)
(0.099289 0.000394546 0)
(0.0992015 0.000387355 0)
(0.0991178 0.000381746 0)
(0.0990375 0.000377299 0)
(0.0989604 0.000373532 0)
(0.0988863 0.000370027 0)
(0.098815 0.000366475 0)
(0.0987461 0.000362669 0)
(0.0986797 0.000358479 0)
(0.0986155 0.000353832 0)
(0.0985536 0.000348693 0)
(0.0984937 0.000343048 0)
(0.0984358 0.000336898 0)
(0.0983799 0.000330258 0)
(0.0983259 0.000323152 0)
(0.0982736 0.000315618 0)
(0.0982231 0.000307707 0)
(0.0981741 0.00029949 0)
(0.0981266 0.000291054 0)
(0.0980804 0.000282512 0)
(0.0980354 0.000274 0)
(0.0979914 0.000265684 0)
(0.0979483 0.000257757 0)
(0.0979058 0.000250447 0)
(0.0978638 0.000244012 0)
(0.097822 0.000238748 0)
(0.0977803 0.000234985 0)
(0.0977383 0.000233093 0)
(0.0976959 0.000233478 0)
(0.0976527 0.000236588 0)
(0.0976085 0.000242915 0)
(0.0975631 0.000252992 0)
(0.0975161 0.0002674 0)
(0.0974673 0.000286769 0)
(0.0974165 0.000311781 0)
(0.0973633 0.000343174 0)
(0.0973076 0.000381745 0)
(0.0972492 0.000428357 0)
(0.0971879 0.00048394 0)
(0.0971235 0.000549501 0)
(0.0970561 0.000626124 0)
(0.0969858 0.000714978 0)
(0.0969125 0.000817318 0)
(0.0968367 0.000934489 0)
(0.0967587 0.00106792 0)
(0.0966792 0.00121914 0)
(0.0965989 0.00138973 0)
(0.0965191 0.00158133 0)
(0.096441 0.00179563 0)
(0.0963665 0.00203429 0)
(0.0962978 0.00229893 0)
(0.0962374 0.00259102 0)
(0.0961884 0.00291184 0)
(0.0961545 0.00326232 0)
(0.0961399 0.00364292 0)
(0.096149 0.0040535 0)
(0.096187 0.00449311 0)
(0.0962593 0.00495983 0)
(0.0963713 0.00545058 0)
(0.0965286 0.00596094 0)
(0.0967359 0.00648507 0)
(0.0969975 0.00701565 0)
(0.0973161 0.00754399 0)
(0.0976928 0.00806024 0)
(0.0981263 0.00855389 0)
(0.0986127 0.00901442 0)
(0.0991454 0.00943227 0)
(0.100003 -2.93764e-05 0)
(0.100015 -3.64553e-05 0)
(0.10003 -1.12842e-05 0)
(0.100043 4.72079e-05 0)
(0.100045 0.000131557 0)
(0.100032 0.000227146 0)
(0.100001 0.00031755 0)
(0.0999505 0.000390168 0)
(0.0998834 0.000439246 0)
(0.0998033 0.000465597 0)
(0.099715 0.000474214 0)
(0.0996226 0.000471459 0)
(0.0995295 0.000462999 0)
(0.0994378 0.000452843 0)
(0.0993489 0.000443256 0)
(0.0992634 0.000435156 0)
(0.0991815 0.000428618 0)
(0.0991029 0.000423315 0)
(0.0990275 0.000418799 0)
(0.0989551 0.000414656 0)
(0.0988852 0.000410564 0)
(0.0988179 0.000406297 0)
(0.0987528 0.000401709 0)
(0.0986899 0.000396716 0)
(0.098629 0.000391273 0)
(0.0985701 0.000385362 0)
(0.0985129 0.000378988 0)
(0.0984576 0.000372166 0)
(0.0984038 0.000364928 0)
(0.0983516 0.00035732 0)
(0.0983007 0.000349405 0)
(0.0982512 0.000341264 0)
(0.0982029 0.000333 0)
(0.0981555 0.00032474 0)
(0.098109 0.000316637 0)
(0.0980632 0.000308873 0)
(0.098018 0.000301661 0)
(0.097973 0.000295246 0)
(0.0979282 0.000289907 0)
(0.0978834 0.000285958 0)
(0.0978383 0.000283751 0)
(0.0977927 0.000283673 0)
(0.0977464 0.000286151 0)
(0.0976992 0.00029165 0)
(0.0976509 0.000300678 0)
(0.0976012 0.00031378 0)
(0.0975501 0.000331548 0)
(0.0974972 0.000354616 0)
(0.0974425 0.000383663 0)
(0.0973857 0.000419417 0)
(0.0973269 0.000462653 0)
(0.0972659 0.000514198 0)
(0.0972027 0.000574932 0)
(0.0971375 0.000645786 0)
(0.0970702 0.000727747 0)
(0.0970013 0.000821852 0)
(0.096931 0.00092919 0)
(0.0968598 0.00105089 0)
(0.0967884 0.00118813 0)
(0.0967176 0.00134208 0)
(0.0966484 0.00151395 0)
(0.0965822 0.00170491 0)
(0.0965205 0.00191607 0)
(0.096465 0.00214845 0)
(0.0964181 0.00240292 0)
(0.096382 0.00268013 0)
(0.0963596 0.00298044 0)
(0.0963541 0.00330384 0)
(0.0963687 0.00364982 0)
(0.0964071 0.00401733 0)
(0.096473 0.00440462 0)
(0.0965702 0.00480919 0)
(0.0967022 0.00522772 0)
(0.0968724 0.00565599 0)
(0.0970835 0.00608893 0)
(0.0973373 0.00652068 0)
(0.0976348 0.00694474 0)
(0.0979757 0.00735418 0)
(0.0983582 0.00774201 0)
(0.098779 0.00810155 0)
(0.0992333 0.00842701 0)
(0.100003 -3.32048e-05 0)
(0.100015 -4.27669e-05 0)
(0.100031 -1.77482e-05 0)
(0.100044 4.33434e-05 0)
(0.10005 0.000133165 0)
(0.100042 0.000236634 0)
(0.100016 0.000336297 0)
(0.0999728 0.000418276 0)
(0.0999127 0.000475668 0)
(0.0998393 0.000508549 0)
(0.0997569 0.000521661 0)
(0.0996695 0.000521518 0)
(0.0995804 0.000514176 0)
(0.0994921 0.000504104 0)
(0.0994061 0.000493986 0)
(0.099323 0.000485059 0)
(0.0992432 0.000477612 0)
(0.0991666 0.00047144 0)
(0.099093 0.000466154 0)
(0.0990222 0.000461357 0)
(0.098954 0.000456721 0)
(0.0988881 0.000452009 0)
(0.0988244 0.000447062 0)
(0.0987627 0.000441782 0)
(0.0987028 0.000436118 0)
(0.0986447 0.000430049 0)
(0.0985882 0.000423579 0)
(0.0985331 0.000416727 0)
(0.0984795 0.000409533 0)
(0.0984271 0.000402052 0)
(0.0983759 0.000394357 0)
(0.0983257 0.000386542 0)
(0.0982763 0.000378723 0)
(0.0982277 0.000371043 0)
(0.0981796 0.00036367 0)
(0.0981319 0.0003568 0)
(0.0980844 0.000350664 0)
(0.098037 0.000345521 0)
(0.0979895 0.000341666 0)
(0.0979416 0.000339429 0)
(0.0978933 0.000339173 0)
(0.0978443 0.000341299 0)
(0.0977944 0.000346243 0)
(0.0977435 0.00035448 0)
(0.0976915 0.000366517 0)
(0.0976382 0.000382904 0)
(0.0975835 0.000404222 0)
(0.0975273 0.000431092 0)
(0.0974694 0.000464171 0)
(0.09741 0.000504153 0)
(0.097349 0.000551765 0)
(0.0972865 0.00060777 0)
(0.0972227 0.000672965 0)
(0.0971576 0.000748175 0)
(0.0970917 0.000834252 0)
(0.0970254 0.000932068 0)
(0.0969591 0.00104251 0)
(0.0968935 0.00116646 0)
(0.0968295 0.00130481 0)
(0.0967679 0.00145839 0)
(0.0967099 0.00162801 0)
(0.0966569 0.00181438 0)
(0.0966103 0.0020181 0)
(0.096572 0.00223963 0)
(0.0965439 0.00247923 0)
(0.0965281 0.0027369 0)
(0.0965269 0.00301234 0)
(0.096543 0.0033049 0)
(0.0965787 0.00361351 0)
(0.0966369 0.00393662 0)
(0.0967201 0.00427218 0)
(0.0968307 0.00461758 0)
(0.0969709 0.0049697 0)
(0.0971425 0.00532485 0)
(0.0973467 0.0056789 0)
(0.0975844 0.00602732 0)
(0.0978552 0.00636536 0)
(0.0981583 0.00668817 0)
(0.098492 0.00699107 0)
(0.0988535 0.00726973 0)
(0.0992393 0.00752056 0)
(0.100003 -3.72298e-05 0)
(0.100014 -4.95372e-05 0)
(0.10003 -2.50126e-05 0)
(0.100045 3.8274e-05 0)
(0.100053 0.000133179 0)
(0.100048 0.000244273 0)
(0.100028 0.000353179 0)
(0.0999903 0.00044477 0)