/*--------------------------------*- C++ -*----------------------------------*\
| =========                 |                                                 |
| \\      /  F ield         | OpenFOAM: The Open Source CFD Toolbox           |
|  \\    /   O peration     | Version:  4.1                                   |
|   \\  /    A nd           | Web:      www.OpenFOAM.org                      |
|    \\/     M anipulation  |                                                 |
\*---------------------------------------------------------------------------*/
FoamFile
{
    version     2.0;
    format      ascii;
    class       volVectorField;
    location    "1";
    object      U;
}
// * * * * * * * * * * * * * * * * * * * * * * * * * * * * * * * * * * * * * //

dimensions      [0 1 -1 0 0 0 0];

internalField   nonuniform List<vector> 
12013
(
(0.100006 -1.48537e-06 0)
(0.100027 -2.41797e-06 0)
(0.100056 -2.69234e-06 0)
(0.100083 -2.18179e-06 0)
(0.1001 -9.17508e-07 0)
(0.100102 9.27047e-07 0)
(0.100084 3.05383e-06 0)
(0.100046 5.11941e-06 0)
(0.0999915 6.83233e-06 0)
(0.0999247 8.01879e-06 0)
(0.0998515 8.63998e-06 0)
(0.0997769 8.76524e-06 0)
(0.0997048 8.52213e-06 0)
(0.0996375 8.05024e-06 0)
(0.0995763 7.46693e-06 0)
(0.0995214 6.85378e-06 0)
(0.0994726 6.25507e-06 0)
(0.0994295 5.68641e-06 0)
(0.0993917 5.14543e-06 0)
(0.0993589 4.62018e-06 0)
(0.0993307 4.09607e-06 0)
(0.0993072 3.56079e-06 0)
(0.0992882 3.00341e-06 0)
(0.0992739 2.41737e-06 0)
(0.0992642 1.79876e-06 0)
(0.0992592 1.14591e-06 0)
(0.099259 4.58064e-07 0)
(0.0992637 -2.64154e-07 0)
(0.0992732 -1.01874e-06 0)
(0.0992876 -1.80385e-06 0)
(0.0993068 -2.61703e-06 0)
(0.099331 -3.45558e-06 0)
(0.0993599 -4.31574e-06 0)
(0.0993936 -5.19333e-06 0)
(0.0994319 -6.08331e-06 0)
(0.0994748 -6.98003e-06 0)
(0.099522 -7.87613e-06 0)
(0.0995734 -8.76424e-06 0)
(0.0996287 -9.63404e-06 0)
(0.0996877 -1.04758e-05 0)
(0.0997501 -1.12762e-05 0)
(0.0998154 -1.20214e-05 0)
(0.0998834 -1.26952e-05 0)
(0.0999535 -1.32792e-05 0)
(0.100025 -1.37531e-05 0)
(0.100098 -1.40933e-05 0)
(0.100171 -1.42741e-05 0)
(0.100243 -1.4265e-05 0)
(0.100315 -1.40329e-05 0)
(0.100384 -1.35393e-05 0)
(0.10045 -1.27407e-05 0)
(0.100511 -1.15875e-05 0)
(0.100567 -1.0022e-05 0)
(0.100616 -7.97758e-06 0)
(0.100657 -5.37676e-06 0)
(0.100687 -2.12862e-06 0)
(0.100704 1.87523e-06 0)
(0.100707 6.76313e-06 0)
(0.100693 1.26894e-05 0)
(0.100659 1.98416e-05 0)
(0.100601 2.84481e-05 0)
(0.100515 3.87919e-05 0)
(0.100397 5.12268e-05 0)
(0.100242 6.6199e-05 0)
(0.100042 8.42803e-05 0)
(0.0997897 0.000106211 0)
(0.0994752 0.000132966 0)
(0.0990862 0.000165851 0)
(0.0986074 0.000206641 0)
(0.098019 0.000257802 0)
(0.0972951 0.000322834 0)
(0.0964015 0.000406807 0)
(0.0952915 0.000517256 0)
(0.0939001 0.00066565 0)
(0.0921352 0.000869902 0)
(0.089863 0.0011587 0)
(0.0868842 0.00157914 0)
(0.0828815 0.00221273 0)
(0.0773566 0.00322505 0)
(0.0697092 0.00508075 0)
(0.0610854 0.0098764 0)
(0.100006 -4.55354e-06 0)
(0.100027 -7.43349e-06 0)
(0.100056 -8.28542e-06 0)
(0.100083 -6.72555e-06 0)
(0.100101 -2.85193e-06 0)
(0.100103 2.80499e-06 0)
(0.100085 9.33234e-06 0)
(0.100048 1.5676e-05 0)
(0.0999936 2.09394e-05 0)
(0.0999271 2.4589e-05 0)
(0.0998541 2.65047e-05 0)
(0.0997796 2.68974e-05 0)
(0.0997075 2.61588e-05 0)
(0.0996402 2.47163e-05 0)
(0.0995789 2.29313e-05 0)
(0.0995238 2.10527e-05 0)
(0.0994749 1.92179e-05 0)
(0.0994316 1.74752e-05 0)
(0.0993935 1.58171e-05 0)
(0.0993604 1.42073e-05 0)
(0.099332 1.26019e-05 0)
(0.0993082 1.09616e-05 0)
(0.0992889 9.25483e-06 0)
(0.0992742 7.46125e-06 0)
(0.0992642 5.56795e-06 0)
(0.0992588 3.56952e-06 0)
(0.0992581 1.46477e-06 0)
(0.0992622 -7.44072e-07 0)
(0.0992712 -3.052e-06 0)
(0.099285 -5.45274e-06 0)
(0.0993036 -7.93945e-06 0)
(0.099327 -1.05028e-05 0)
(0.0993551 -1.3131e-05 0)
(0.0993879 -1.58122e-05 0)
(0.0994253 -1.853e-05 0)
(0.0994672 -2.12675e-05 0)
(0.0995133 -2.40031e-05 0)
(0.0995636 -2.67123e-05 0)
(0.0996177 -2.93653e-05 0)
(0.0996754 -3.19296e-05 0)
(0.0997364 -3.43669e-05 0)
(0.0998003 -3.6634e-05 0)
(0.0998668 -3.86809e-05 0)
(0.0999352 -4.04521e-05 0)
(0.100005 -4.18841e-05 0)
(0.100076 -4.29053e-05 0)
(0.100147 -4.34359e-05 0)
(0.100218 -4.33844e-05 0)
(0.100287 -4.26484e-05 0)
(0.100354 -4.11112e-05 0)
(0.100418 -3.86388e-05 0)
(0.100478 -3.50789e-05 0)
(0.100532 -3.02569e-05 0)
(0.100578 -2.39687e-05 0)
(0.100617 -1.59783e-05 0)
(0.100645 -6.00738e-06 0)
(0.10066 6.27304e-06 0)
(0.100661 2.1253e-05 0)
(0.100645 3.94009e-05 0)
(0.100609 6.12843e-05 0)
(0.10055 8.75949e-05 0)
(0.100464 0.000119188 0)
(0.100346 0.000157128 0)
(0.100191 0.000202756 0)
(0.0999936 0.000257784 0)
(0.0997451 0.00032442 0)
(0.0994367 0.000405558 0)
(0.0990571 0.000505048 0)
(0.0985924 0.000628096 0)
(0.0980248 0.000781867 0)
(0.0973318 0.000976414 0)
(0.0964842 0.00122612 0)
(0.0954437 0.00155195 0)
(0.0941598 0.00198513 0)
(0.0925647 0.0025729 0)
(0.0905691 0.00338762 0)
(0.0880558 0.00454017 0)
(0.0848704 0.00619862 0)
(0.0808394 0.0086134 0)
(0.0760145 0.0120842 0)
(0.0718023 0.016496 0)
(0.100005 -7.80266e-06 0)
(0.100026 -1.28187e-05 0)
(0.100056 -1.43165e-05 0)
(0.100083 -1.16673e-05 0)
(0.100102 -5.03599e-06 0)
(0.100105 4.67155e-06 0)
(0.100088 1.58906e-05 0)
(0.100051 2.68111e-05 0)
(0.099998 3.58893e-05 0)
(0.0999323 4.22026e-05 0)
(0.0998599 4.5539e-05 0)
(0.0997858 4.6255e-05 0)
(0.0997139 4.5021e-05 0)
(0.0996466 4.25701e-05 0)
(0.0995851 3.95227e-05 0)
(0.0995298 3.63085e-05 0)
(0.0994805 3.31648e-05 0)
(0.0994368 3.01773e-05 0)
(0.0993984 2.7334e-05 0)
(0.0993649 2.45741e-05 0)
(0.099336 2.18237e-05 0)
(0.0993116 1.90145e-05 0)
(0.0992918 1.60941e-05 0)
(0.0992765 1.30269e-05 0)
(0.0992657 9.79097e-06 0)
(0.0992596 6.37691e-06 0)
(0.0992581 2.78309e-06 0)
(0.0992613 -9.86048e-07 0)
(0.0992692 -4.92295e-06 0)
(0.0992819 -9.0167e-06 0)
(0.0992993 -1.32545e-05 0)
(0.0993213 -1.76204e-05 0)
(0.099348 -2.20951e-05 0)
(0.0993793 -2.66559e-05 0)
(0.0994149 -3.12774e-05 0)
(0.0994549 -3.59282e-05 0)
(0.0994991 -4.05721e-05 0)
(0.0995472 -4.51654e-05 0)
(0.099599 -4.96593e-05 0)
(0.0996543 -5.39962e-05 0)
(0.0997127 -5.8111e-05 0)
(0.0997739 -6.19288e-05 0)
(0.0998374 -6.53645e-05 0)
(0.0999028 -6.83223e-05 0)
(0.0999695 -7.0694e-05 0)
(0.100037 -7.2357e-05 0)
(0.100105 -7.31737e-05 0)
(0.100172 -7.29888e-05 0)
(0.100237 -7.16268e-05 0)
(0.1003 -6.8888e-05 0)
(0.10036 -6.4545e-05 0)
(0.100415 -5.83381e-05 0)
(0.100465 -4.99695e-05 0)
(0.100507 -3.90931e-05 0)
(0.100541 -2.53081e-05 0)
(0.100565 -8.14309e-06 0)
(0.100576 1.29572e-05 0)
(0.100573 3.86492e-05 0)
(0.100554 6.97201e-05 0)
(0.100515 0.00010712 0)
(0.100453 0.000152004 0)
(0.100365 0.000205794 0)
(0.100246 0.00027025 0)
(0.100093 0.000347579 0)
(0.0998978 0.000440575 0)
(0.0996553 0.000552819 0)
(0.0993569 0.000688956 0)
(0.098993 0.000855094 0)
(0.0985519 0.00105937 0)
(0.0980193 0.00131281 0)
(0.0973779 0.00163052 0)
(0.0966063 0.00203353 0)
(0.095679 0.00255148 0)
(0.0945654 0.0032265 0)
(0.0932308 0.00411869 0)
(0.0916397 0.00531286 0)
(0.0897646 0.0069246 0)
(0.0876038 0.00909922 0)
(0.0852271 0.0119877 0)
(0.0829157 0.0156196 0)
(0.0814317 0.019376 0)
(0.100005 -1.12296e-05 0)
(0.100026 -1.8592e-05 0)
(0.100055 -2.08204e-05 0)
(0.100084 -1.70714e-05 0)
(0.100103 -7.56215e-06 0)
(0.100107 6.41147e-06 0)
(0.100092 2.26029e-05 0)
(0.100057 3.84043e-05 0)
(0.100005 5.15831e-05 0)
(0.0999407 6.0796e-05 0)
(0.0998695 6.57212e-05 0)
(0.0997961 6.68592e-05 0)
(0.0997246 6.51681e-05 0)
(0.0996574 6.17001e-05 0)
(0.0995958 5.73505e-05 0)
(0.0995402 5.27434e-05 0)
(0.0994905 4.82255e-05 0)
(0.0994463 4.39253e-05 0)
(0.0994073 3.983e-05 0)
(0.0993732 3.58559e-05 0)
(0.0993437 3.18982e-05 0)
(0.0993187 2.78601e-05 0)
(0.0992981 2.36668e-05 0)
(0.0992819 1.92666e-05 0)
(0.0992703 1.46297e-05 0)
(0.0992631 9.74199e-06 0)
(0.0992605 4.60106e-06 0)
(0.0992625 -7.8687e-07 0)
(0.0992691 -6.41034e-06 0)
(0.0992802 -1.22537e-05 0)
(0.0992959 -1.82979e-05 0)
(0.0993162 -2.45195e-05 0)
(0.0993408 -3.08908e-05 0)
(0.0993699 -3.73788e-05 0)
(0.0994032 -4.39461e-05 0)
(0.0994407 -5.05473e-05 0)
(0.099482 -5.71292e-05 0)
(0.0995271 -6.36294e-05 0)
(0.0995757 -6.99767e-05 0)
(0.0996276 -7.60881e-05 0)
(0.0996823 -8.18695e-05 0)
(0.0997396 -8.72124e-05 0)
(0.0997989 -9.1995e-05 0)
(0.09986 -9.60791e-05 0)
(0.0999221 -9.93084e-05 0)
(0.0999847 -0.000101508 0)
(0.100047 -0.000102479 0)
(0.100109 -0.000102 0)
(0.100169 -9.9819e-05 0)
(0.100226 -9.56501e-05 0)
(0.10028 -8.91697e-05 0)
(0.10033 -8.00078e-05 0)
(0.100373 -6.77395e-05 0)
(0.10041 -5.1875e-05 0)
(0.100438 -3.18454e-05 0)
(0.100455 -6.98581e-06 0)
(0.100461 2.34837e-05 0)
(0.100453 6.04836e-05 0)
(0.100428 0.000105112 0)
(0.100385 0.000158689 0)
(0.100319 0.000222814 0)
(0.100229 0.000299436 0)
(0.100111 0.000390956 0)
(0.0999588 0.00050036 0)
(0.0997693 0.000631386 0)
(0.0995363 0.000788774 0)
(0.0992533 0.000978583 0)
(0.0989129 0.00120865 0)
(0.0985062 0.00148921 0)
(0.0980235 0.00183375 0)
(0.0974537 0.00226025 0)
(0.0967849 0.00279278 0)
(0.0960051 0.00346368 0)
(0.0951041 0.00431622 0)
(0.094077 0.0054074 0)
(0.0929311 0.00680942 0)
(0.0916974 0.00860598 0)
(0.0904492 0.0108746 0)
(0.0893275 0.0136381 0)
(0.0885704 0.0167424 0)
(0.0884795 0.019581 0)
(0.100005 -1.48546e-05 0)
(0.100026 -2.47807e-05 0)
(0.100055 -2.78513e-05 0)
(0.100084 -2.30286e-05 0)
(0.100104 -1.05622e-05 0)
(0.10011 7.85671e-06 0)
(0.100097 2.92788e-05 0)
(0.100064 5.02639e-05 0)
(0.100015 6.78506e-05 0)
(0.0999529 8.0239e-05 0)
(0.0998833 8.69727e-05 0)
(0.0998112 8.86851e-05 0)
(0.0997404 8.66226e-05 0)
(0.0996735 8.21671e-05 0)
(0.0996118 7.65029e-05 0)
(0.0995558 7.04615e-05 0)
(0.0995056 6.45114e-05 0)
(0.0994609 5.88335e-05 0)
(0.0994212 5.34188e-05 0)
(0.0993864 4.81647e-05 0)
(0.0993562 4.29364e-05 0)
(0.0993304 3.76098e-05 0)
(0.0993089 3.20873e-05 0)
(0.0992919 2.63015e-05 0)
(0.0992792 2.02131e-05 0)
(0.0992708 1.38035e-05 0)
(0.0992669 7.07008e-06 0)
(0.0992674 2.05456e-08 0)
(0.0992724 -7.32925e-06 0)
(0.0992817 -1.49582e-05 0)
(0.0992954 -2.28409e-05 0)
(0.0993134 -3.09454e-05 0)
(0.0993357 -3.9235e-05 0)
(0.0993621 -4.76656e-05 0)
(0.0993925 -5.61859e-05 0)
(0.0994268 -6.47358e-05 0)
(0.0994647 -7.32441e-05 0)
(0.0995062 -8.16283e-05 0)
(0.0995508 -8.97934e-05 0)
(0.0995984 -9.76292e-05 0)
(0.0996485 -0.000105011 0)
(0.099701 -0.000111795 0)
(0.0997552 -0.00011782 0)
(0.0998108 -0.000122905 0)
(0.0998672 -0.000126843 0)
(0.0999238 -0.000129403 0)
(0.09998 -0.000130326 0)
(0.100035 -0.000129321 0)
(0.100088 -0.000126056 0)
(0.100139 -0.00012016 0)
(0.100186 -0.000111209 0)
(0.100228 -9.87233e-05 0)
(0.100264 -8.21512e-05 0)
(0.100293 -6.08596e-05 0)
(0.100313 -3.41148e-05 0)
(0.100324 -1.06382e-06 0)
(0.100323 3.92877e-05 0)
(0.100308 8.81098e-05 0)
(0.100278 0.00014679 0)
(0.10023 0.000216987 0)
(0.100161 0.000300691 0)
(0.10007 0.000400312 0)
(0.0999518 0.000518789 0)
(0.0998042 0.000659729 0)
(0.099623 0.000827596 0)
(0.0994039 0.00102795 0)
(0.0991424 0.00126778 0)
(0.0988333 0.00155592 0)
(0.0984715 0.0019036 0)
(0.0980518 0.00232515 0)
(0.0975697 0.00283895 0)
(0.0970219 0.00346846 0)
(0.0964086 0.0042434 0)
(0.0957353 0.00520073 0)
(0.0950173 0.00638458 0)
(0.0942857 0.00784363 0)
(0.0935952 0.00962237 0)
(0.0930326 0.0117401 0)
(0.092721 0.0141491 0)
(0.0928045 0.0166611 0)
(0.0933727 0.0188518 0)
(0.100005 -1.8696e-05 0)
(0.100026 -3.14146e-05 0)
(0.100055 -3.54727e-05 0)
(0.100085 -2.96462e-05 0)
(0.100106 -1.41967e-05 0)
(0.100114 8.79829e-06 0)
(0.100104 3.56758e-05 0)
(0.100074 6.21395e-05 0)
(0.100028 8.44632e-05 0)
(0.0999689 0.000100348 0)
(0.0999018 0.00010917 0)
(0.0998314 0.000111673 0)
(0.0997616 0.000109384 0)
(0.0996951 0.000104018 0)
(0.0996334 9.70607e-05 0)
(0.0995772 8.95645e-05 0)
(0.0995265 8.21351e-05 0)
(0.0994811 7.50165e-05 0)
(0.0994408 6.8215e-05 0)
(0.0994053 6.16119e-05 0)
(0.0993742 5.50487e-05 0)
(0.0993476 4.8374e-05 0)
(0.0993253 4.14681e-05 0)
(0.0993072 3.42487e-05 0)
(0.0992934 2.66659e-05 0)
(0.0992838 1.86972e-05 0)
(0.0992785 1.0339e-05 0)
(0.0992774 1.60157e-06 0)
(0.0992805 -7.49523e-06 0)
(0.0992879 -1.69243e-05 0)
(0.0992993 -2.66524e-05 0)
(0.0993149 -3.66394e-05 0)
(0.0993344 -4.68378e-05 0)
(0.0993577 -5.71911e-05 0)
(0.0993848 -6.76342e-05 0)
(0.0994155 -7.80902e-05 0)
(0.0994496 -8.84689e-05 0)
(0.0994867 -9.86658e-05 0)
(0.0995268 -0.000108561 0)
(0.0995695 -0.000118016 0)
(0.0996144 -0.000126872 0)
(0.0996612 -0.000134952 0)
(0.0997095 -0.000142052 0)
(0.0997588 -0.000147945 0)
(0.0998086 -0.000152374 0)
(0.0998583 -0.000155051 0)
(0.0999072 -0.000155654 0)
(0.0999548 -0.000153821 0)
(0.1 -0.000149143 0)
(0.100043 -0.000141161 0)
(0.100081 -0.000129355 0)
(0.100115 -0.000113135 0)
(0.100143 -9.18271e-05 0)
(0.100164 -6.46612e-05 0)
(0.100176 -3.07487e-05 0)
(0.100179 1.09368e-05 0)
(0.10017 6.15842e-05 0)
(0.100149 0.000122585 0)
(0.100113 0.000195577 0)
(0.10006 0.000282502 0)
(0.0999894 0.000385665 0)
(0.0998975 0.000507828 0)
(0.0997825 0.000652314 0)
(0.0996417 0.000823143 0)
(0.0994725 0.0010252 0)
(0.0992721 0.00126446 0)
(0.0990379 0.00154825 0)
(0.0987674 0.00188556 0)
(0.0984589 0.00228747 0)
(0.0981115 0.00276759 0)
(0.0977262 0.00334253 0)
(0.0973069 0.00403234 0)
(0.0968619 0.00486071 0)
(0.0964064 0.00585454 0)
(0.0959655 0.00704217 0)
(0.0955774 0.00844917 0)
(0.0952969 0.0100894 0)
(0.0951964 0.0119488 0)
(0.0953591 0.0139599 0)
(0.0958567 0.0159688 0)
(0.0966963 0.0177129 0)
(0.100005 -2.27681e-05 0)
(0.100026 -3.85258e-05 0)
(0.100055 -4.37536e-05 0)
(0.100085 -3.70455e-05 0)
(0.100109 -1.86496e-05 0)
(0.100119 8.98943e-06 0)
(0.100112 4.15025e-05 0)
(0.100087 7.37247e-05 0)
(0.100044 0.000101132 0)
(0.0999888 0.000120882 0)
(0.0999247 0.00013214 0)
(0.0998565 0.000135724 0)
(0.0997882 0.000133422 0)
(0.0997225 0.000127279 0)
(0.099661 0.00011909 0)
(0.0996046 0.000110145 0)
(0.0995534 0.000101202 0)
(0.0995074 9.25853e-05 0)
(0.0994664 8.43276e-05 0)
(0.0994302 7.63053e-05 0)
(0.0993984 6.83398e-05 0)
(0.0993709 6.02562e-05 0)
(0.0993477 5.19145e-05 0)
(0.0993286 4.32171e-05 0)
(0.0993136 3.41048e-05 0)
(0.0993027 2.45504e-05 0)
(0.0992959 1.45493e-05 0)
(0.0992932 4.11431e-06 0)
(0.0992944 -6.73032e-06 0)
(0.0992996 -1.79511e-05 0)
(0.0993087 -2.95056e-05 0)
(0.0993216 -4.13452e-05 0)
(0.0993381 -5.34098e-05 0)
(0.0993582 -6.56309e-05 0)
(0.0993817 -7.79269e-05 0)
(0.0994085 -9.02033e-05 0)
(0.0994382 -0.000102349 0)
(0.0994708 -0.000114238 0)
(0.0995058 -0.000125722 0)
(0.0995431 -0.000136633 0)
(0.0995823 -0.00014678 0)
(0.0996229 -0.000155947 0)
(0.0996647 -0.00016389 0)
(0.099707 -0.000170333 0)
(0.0997495 -0.000174969 0)
(0.0997916 -0.000177454 0)
(0.0998326 -0.000177401 0)
(0.099872 -0.00017438 0)
(0.0999089 -0.000167906 0)
(0.0999426 -0.000157434 0)
(0.0999723 -0.000142353 0)
(0.0999971 -0.000121968 0)
(0.100016 -9.5494e-05 0)
(0.100028 -6.20349e-05 0)
(0.100032 -2.05648e-05 0)
(0.100027 3.00913e-05 0)
(0.100011 9.1285e-05 0)
(0.099983 0.000164588 0)
(0.099942 0.000251832 0)
(0.0998862 0.000355161 0)
(0.0998139 0.000477094 0)
(0.0997237 0.000620601 0)
(0.0996139 0.000789203 0)
(0.0994829 0.000987077 0)
(0.0993293 0.0012192 0)
(0.0991519 0.0014915 0)
(0.09895 0.00181103 0)
(0.0987235 0.00218619 0)
(0.0984735 0.00262692 0)
(0.0982026 0.00314483 0)
(0.0979158 0.00375338 0)
(0.0976214 0.00446768 0)
(0.0973323 0.00530412 0)
(0.0970672 0.00627916 0)
(0.0968528 0.00740716 0)
(0.0967242 0.00869634 0)
(0.096726 0.0101422 0)
(0.0969085 0.0117176 0)
(0.0973203 0.0133606 0)
(0.0979908 0.014963 0)
(0.0989022 0.0163709 0)
(0.100005 -2.70851e-05 0)
(0.100025 -4.61471e-05 0)
(0.100055 -5.27662e-05 0)
(0.100086 -4.53557e-05 0)
(0.100111 -2.41222e-05 0)
(0.100124 8.15622e-06 0)
(0.100121 4.64294e-05 0)
(0.100101 8.46648e-05 0)
(0.100063 0.000117513 0)
(0.100012 0.000141545 0)
(0.0999516 0.000155655 0)
(0.0998863 0.000160689 0)
(0.0998199 0.000158664 0)
(0.0997553 0.000151943 0)
(0.0996942 0.000142632 0)
(0.0996377 0.000132275 0)
(0.0995862 0.000121803 0)
(0.0995397 0.000111638 0)
(0.0994981 0.000101857 0)
(0.0994611 9.23427e-05 0)
(0.0994286 8.29048e-05 0)
(0.0994003 7.33508e-05 0)
(0.0993762 6.35223e-05 0)
(0.0993562 5.33074e-05 0)
(0.0993401 4.26378e-05 0)
(0.0993279 3.14814e-05 0)
(0.0993196 1.98332e-05 0)
(0.0993152 7.7078e-06 0)
(0.0993145 -4.86489e-06 0)
(0.0993175 -1.78447e-05 0)
(0.0993241 -3.118e-05 0)
(0.0993342 -4.48119e-05 0)
(0.0993476 -5.86676e-05 0)
(0.0993643 -7.26633e-05 0)
(0.099384 -8.67017e-05 0)
(0.0994066 -0.000100669 0)
(0.0994318 -0.000114432 0)
(0.0994594 -0.00012784 0)
(0.0994891 -0.000140717 0)
(0.0995207 -0.000152867 0)
(0.0995537 -0.000164061 0)
(0.0995878 -0.000174047 0)
(0.0996226 -0.000182537 0)
(0.0996576 -0.000189211 0)
(0.0996924 -0.000193711 0)
(0.0997264 -0.000195635 0)
(0.099759 -0.000194538 0)
(0.0997897 -0.000189921 0)
(0.0998177 -0.000181228 0)
(0.0998424 -0.000167837 0)
(0.0998629 -0.00014905 0)
(0.0998786 -0.000124081 0)
(0.0998884 -9.2047e-05 0)
(0.0998916 -5.19455e-05 0)
(0.0998872 -2.6395e-06 0)
(0.0998742 5.71588e-05 0)
(0.0998515 0.000128924 0)
(0.0998182 0.000214351 0)
(0.0997731 0.00031539 0)
(0.0997152 0.000434292 0)
(0.0996435 0.000573664 0)
(0.099557 0.000736525 0)
(0.0994549 0.000926385 0)
(0.0993367 0.00114731 0)
(0.099202 0.00140404 0)
(0.099051 0.00170203 0)
(0.0988847 0.00204756 0)
(0.0987049 0.00244783 0)
(0.0985148 0.00291092 0)
(0.0983193 0.00344582 0)
(0.0981256 0.00406217 0)
(0.097944 0.00476991 0)
(0.0977886 0.00557853 0)
(0.0976775 0.00649586 0)
(0.097634 0.00752606 0)
(0.0976861 0.0086668 0)
(0.0978651 0.00990522 0)
(0.0982023 0.0112131 0)
(0.098723 0.012542 0)
(0.0994357 0.0138214 0)
(0.10032 0.0149635 0)
(0.100004 -3.16595e-05 0)
(0.100025 -5.43092e-05 0)
(0.100055 -6.25811e-05 0)
(0.100087 -5.47052e-05 0)
(0.100114 -3.0819e-05 0)
(0.10013 6.01561e-06 0)
(0.100131 5.01081e-05 0)
(0.100116 9.45765e-05 0)
(0.100084 0.000133229 0)
(0.100038 0.000161997 0)
(0.0999816 0.00017944 0)
(0.0999198 0.000186373 0)
(0.0998558 0.000184995 0)
(0.0997926 0.000177964 0)
(0.0997323 0.000167696 0)
(0.0996759 0.000156002 0)
(0.0996243 0.000144007 0)
(0.0995774 0.000132257 0)
(0.0995352 0.000120889 0)
(0.0994977 0.000109811 0)
(0.0994645 9.88308e-05 0)
(0.0994355 8.77448e-05 0)
(0.0994106 7.63809e-05 0)
(0.0993896 6.4614e-05 0)
(0.0993724 5.23679e-05 0)
(0.099359 3.96049e-05 0)
(0.0993492 2.63197e-05 0)
(0.0993431 1.25299e-05 0)
(0.0993404 -1.72996e-06 0)
(0.0993411 -1.64114e-05 0)
(0.0993452 -3.14536e-05 0)
(0.0993524 -4.67864e-05 0)
(0.0993627 -6.23225e-05 0)
(0.0993758 -7.79622e-05 0)
(0.0993916 -9.35908e-05 0)
(0.0994098 -0.000109074 0)
(0.0994303 -0.000124257 0)
(0.0994528 -0.000138961 0)
(0.099477 -0.000152985 0)
(0.0995026 -0.000166098 0)
(0.0995292 -0.000178041 0)
(0.0995565 -0.00018852 0)
(0.0995841 -0.000197208 0)
(0.0996115 -0.000203739 0)
(0.0996383 -0.000207707 0)
(0.099664 -0.000208656 0)
(0.0996881 -0.000206086 0)
(0.0997099 -0.000199435 0)
(0.0997289 -0.000188085 0)
(0.0997444 -0.000171342 0)
(0.0997558 -0.000148438 0)
(0.0997624 -0.000118511 0)
(0.0997635 -8.05994e-05 0)
(0.0997583 -3.36212e-05 0)
(0.099746 2.36349e-05 0)
(0.099726 9.25303e-05 0)
(0.0996975 0.000174609 0)
(0.0996597 0.000271621 0)
(0.0996119 0.000385549 0)
(0.0995537 0.000518644 0)
(0.0994844 0.000673466 0)
(0.0994038 0.00085292 0)
(0.0993118 0.0010603 0)
(0.0992087 0.00129933 0)
(0.0990953 0.0015742 0)
(0.0989728 0.00188958 0)
(0.0988433 0.00225063 0)
(0.0987101 0.00266296 0)
(0.0985775 0.00313254 0)
(0.0984516 0.0036655 0)
(0.0983404 0.00426784 0)
(0.0982541 0.00494492 0)
(0.0982056 0.00570078 0)
(0.0982103 0.00653712 0)
(0.0982864 0.00745191 0)
(0.0984535 0.00843772 0)
(0.0987318 0.00947971 0)
(0.0991391 0.0105537 0)
(0.0996866 0.011625 0)
(0.100374 0.0126493 0)
(0.101185 0.0135769 0)
(0.100004 -3.65018e-05 0)
(0.100025 -6.30377e-05 0)
(0.100055 -7.32588e-05 0)
(0.100087 -6.52096e-05 0)
(0.100116 -3.89278e-05 0)
(0.100136 2.29984e-06 0)
(0.100142 5.22008e-05 0)
(0.100131 0.000103077 0)
(0.100105 0.000147885 0)
(0.100065 0.000181871 0)
(0.100014 0.000203187 0)
(0.0999556 0.000212539 0)
(0.0998945 0.000212253 0)
(0.0998332 0.000205249 0)
(0.0997739 0.000194247 0)
(0.0997181 0.000181335 0)
(0.0996665 0.000167855 0)
(0.0996194 0.000154499 0)
(0.0995769 0.000141493 0)
(0.0995388 0.000128785 0)
(0.099505 0.000116197 0)
(0.0994754 0.000103522 0)
(0.0994497 9.05787e-05 0)
(0.0994278 7.72336e-05 0)
(0.0994096 6.34016e-05 0)
(0.0993949 4.90415e-05 0)
(0.0993837 3.41471e-05 0)
(0.0993758 1.87386e-05 0)
(0.0993712 2.85615e-06 0)
(0.0993696 -1.34437e-05 0)
(0.0993711 -3.00906e-05 0)
(0.0993753 -4.69982e-05 0)
(0.0993823 -6.4067e-05 0)
(0.0993917 -8.11808e-05 0)
(0.0994035 -9.82064e-05 0)
(0.0994173 -0.000114987 0)
(0.0994329 -0.000131344 0)
(0.0994501 -0.000147074 0)
(0.0994686 -0.000161946 0)
(0.0994881 -0.000175699 0)
(0.0995082 -0.000188039 0)
(0.0995285 -0.000198636 0)
(0.0995488 -0.000207124 0)
(0.0995685 -0.000213094 0)
(0.0995873 -0.000216095 0)
(0.0996046 -0.000215625 0)
(0.0996201 -0.00021113 0)
(0.0996331 -0.000202001 0)
(0.0996432 -0.000187561 0)
(0.0996498 -0.000167064 0)
(0.0996524 -0.000139684 0)
(0.0996503 -0.000104506 0)
(0.0996431 -6.05161e-05 0)
(0.0996302 -6.58725e-06 0)
(0.099611 5.85249e-05 0)
(0.099585 0.00013621 0)
(0.0995517 0.000228019 0)
(0.0995108 0.000335682 0)
(0.099462 0.000461124 0)
(0.0994051 0.000606489 0)
(0.0993401 0.000774162 0)
(0.0992674 0.00096678 0)
(0.0991874 0.00118725 0)
(0.0991012 0.00143876 0)
(0.0990102 0.00172476 0)
(0.0989165 0.00204893 0)
(0.0988231 0.00241513 0)
(0.0987337 0.00282729 0)
(0.0986533 0.00328929 0)
(0.0985879 0.00380468 0)
(0.0985452 0.00437637 0)
(0.0985342 0.00500626 0)
(0.0985656 0.00569462 0)
(0.0986511 0.00643945 0)
(0.0988036 0.00723568 0)
(0.099036 0.00807436 0)
(0.0993601 0.00894186 0)
(0.0997848 0.00981942 0)
(0.100314 0.0106833 0)
(0.100945 0.0115061 0)
(0.101664 0.0122594 0)
(0.100004 -4.16186e-05 0)
(0.100024 -7.235e-05 0)
(0.100055 -8.48429e-05 0)
(0.100088 -7.69558e-05 0)
(0.100118 -4.85975e-05 0)
(0.100141 -3.21364e-06 0)
(0.100151 5.24154e-05 0)
(0.100147 0.000109822 0)
(0.100126 0.000161114 0)
(0.100092 0.000200805 0)
(0.100046 0.000226567 0)
(0.0999921 0.000238915 0)
(0.0999343 0.000240232 0)
(0.0998753 0.000233659 0)
(0.0998175 0.000222205 0)
(0.0997625 0.000208242 0)
(0.0997112 0.000193351 0)
(0.0996642 0.000178398 0)
(0.0996214 0.00016372 0)
(0.099583 0.00014933 0)
(0.0995488 0.000135079 0)
(0.0995186 0.000120768 0)
(0.0994921 0.000106214 0)
(0.0994694 9.12761e-05 0)
(0.0994501 7.58641e-05 0)
(0.0994342 5.99337e-05 0)
(0.0994214 4.3478e-05 0)
(0.0994118 2.65201e-05 0)
(0.0994051 9.10611e-06 0)
(0.0994012 -8.69891e-06 0)
(0.0994 -2.68122e-05 0)
(0.0994012 -4.51367e-05 0)
(0.0994048 -6.3555e-05 0)
(0.0994104 -8.19325e-05 0)
(0.099418 -0.000100119 0)
(0.0994272 -0.000117934 0)
(0.0994379 -0.000135175 0)
(0.0994497 -0.000151612 0)
(0.0994624 -0.000166988 0)
(0.0994756 -0.00018101 0)
(0.0994891 -0.000193353 0)
(0.0995024 -0.000203652 0)
(0.0995153 -0.000211505 0)
(0.0995273 -0.000216466 0)
(0.0995381 -0.000218043 0)
(0.0995472 -0.000215695 0)
(0.0995542 -0.000208828 0)
(0.0995586 -0.00019679 0)
(0.0995601 -0.000178866 0)
(0.0995582 -0.00015427 0)
(0.0995525 -0.000122143 0)
(0.0995425 -8.15406e-05 0)
(0.0995277 -3.14277e-05 0)
(0.099508 2.93257e-05 0)
(0.0994828 0.000101958 0)
(0.0994521 0.000187834 0)
(0.0994155 0.000288447 0)
(0.099373 0.00040543 0)
(0.0993246 0.000540568 0)
(0.0992707 0.000695799 0)
(0.0992116 0.000873221 0)
(0.0991481 0.00107509 0)
(0.0990813 0.00130381 0)
(0.0990127 0.00156189 0)
(0.0989441 0.00185196 0)
(0.0988781 0.00217664 0)
(0.098818 0.0025385 0)
(0.0987676 0.00293993 0)
(0.0987317 0.00338295 0)
(0.0987158 0.00386904 0)
(0.0987266 0.00439887 0)
(0.0987713 0.00497196 0)
(0.098858 0.00558638 0)
(0.0989949 0.00623832 0)
(0.0991907 0.00692177 0)
(0.0994528 0.00762818 0)
(0.0997878 0.00834633 0)
(0.100199 0.00906242 0)
(0.100688 0.00976055 0)
(0.10125 0.0104238 0)
(0.101876 0.0110359 0)
(0.100004 -4.70118e-05 0)
(0.100024 -8.22509e-05 0)
(0.100054 -9.73528e-05 0)
(0.100088 -8.9991e-05 0)
(0.10012 -5.99194e-05 0)
(0.100145 -1.06728e-05 0)
(0.10016 5.05403e-05 0)
(0.10016 0.000114542 0)
(0.100145 0.000172605 0)
(0.100117 0.000218474 0)
(0.100076 0.000249264 0)
(0.100027 0.000265215 0)
(0.0999733 0.000268694 0)
(0.099917 0.000263011 0)
(0.0998611 0.000251441 0)
(0.0998073 0.000236646 0)
(0.0997567 0.000220463 0)
(0.0997098 0.000203956 0)
(0.0996671 0.000187604 0)
(0.0996285 0.000171505 0)
(0.0995939 0.000155557 0)
(0.0995631 0.000139582 0)
(0.099536 0.000123402 0)
(0.0995123 0.000106877 0)
(0.099492 8.99123e-05 0)
(0.0994747 7.24609e-05 0)
(0.0994604 5.45172e-05 0)
(0.0994489 3.61071e-05 0)
(0.0994401 1.72828e-05 0)
(0.0994337 -1.88167e-06 0)
(0.0994297 -2.12935e-05 0)
(0.0994278 -4.08351e-05 0)
(0.0994278 -6.03793e-05 0)
(0.0994295 -7.97742e-05 0)
(0.0994328 -9.88387e-05 0)
(0.0994373 -0.000117379 0)
(0.0994428 -0.000135169 0)
(0.0994491 -0.000151954 0)
(0.0994559 -0.000167447 0)
(0.0994628 -0.000181329 0)
(0.0994696 -0.000193244 0)
(0.0994759 -0.000202799 0)
(0.0994814 -0.000209559 0)
(0.0994858 -0.000213047 0)
(0.0994887 -0.00021274 0)
(0.0994897 -0.000208067 0)
(0.0994886 -0.000198404 0)
(0.0994849 -0.000183073 0)
(0.0994782 -0.000161335 0)
(0.0994684 -0.000132387 0)
(0.099455 -9.53608e-05 0)
(0.0994378 -4.93114e-05 0)
(0.0994165 6.78003e-06 0)
(0.0993909 7.40088e-05 0)
(0.0993611 0.000153565 0)
(0.0993268 0.000246732 0)
(0.0992882 0.000354886 0)
(0.0992454 0.0004795 0)
(0.099199 0.000622141 0)
(0.0991493 0.000784465 0)
(0.0990973 0.000968208 0)
(0.099044 0.00117517 0)
(0.0989907 0.00140717 0)
(0.0989393 0.00166605 0)
(0.0988918 0.00195356 0)
(0.0988509 0.00227136 0)
(0.0988198 0.00262085 0)
(0.0988022 0.00300312 0)
(0.0988021 0.00341878 0)
(0.0988243 0.00386783 0)
(0.098874 0.00434943 0)
(0.0989567 0.00486177 0)
(0.099078 0.00540185 0)
(0.0992435 0.00596534 0)
(0.0994582 0.00654644 0)
(0.0997263 0.00713786 0)
(0.100051 0.00773089 0)
(0.100433 0.00831568 0)
(0.100872 0.00888167 0)
(0.101363 0.00941834 0)
(0.101901 0.00991614 0)
(0.100004 -5.26782e-05 0)
(0.100024 -9.27313e-05 0)
(0.100053 -0.000110778 0)
(0.100087 -0.000104313 0)
(0.10012 -7.29104e-05 0)
(0.100148 -2.0131e-05 0)
(0.100166 4.64714e-05 0)
(0.100171 0.000117075 0)
(0.100162 0.000182141 0)
(0.100139 0.000234617 0)
(0.100104 0.000270999 0)
(0.10006 0.000291163 0)
(0.100009 0.000297385 0)
(0.0999563 0.000293087 0)
(0.0999026 0.000281787 0)
(0.0998504 0.00026643 0)
(0.0998007 0.000249122 0)
(0.0997544 0.000231153 0)
(0.0997119 0.000213165 0)
(0.0996732 0.000195365 0)
(0.0996383 0.000177718 0)
(0.099607 0.00016008 0)
(0.0995792 0.00014229 0)
(0.0995546 0.000124211 0)
(0.0995331 0.000105748 0)
(0.0995144 8.6856e-05 0)
(0.0994984 6.75291e-05 0)
(0.0994849 4.77976e-05 0)
(0.0994738 2.77204e-05 0)
(0.0994648 7.38075e-06 0)
(0.0994577 -1.31168e-05 0)
(0.0994524 -3.36384e-05 0)
(0.0994487 -5.40418e-05 0)
(0.0994464 -7.41569e-05 0)
(0.0994451 -9.37814e-05 0)
(0.0994447 -0.0001127 0)
(0.099445 -0.000130666 0)
(0.0994456 -0.000147399 0)
(0.0994464 -0.000162589 0)
(0.0994469 -0.000175893 0)
(0.099447 -0.000186926 0)
(0.0994463 -0.000195273 0)
(0.0994446 -0.000200475 0)
(0.0994414 -0.000202031 0)
(0.0994367 -0.000199397 0)
(0.09943 -0.000191984 0)
(0.099421 -0.000179152 0)
(0.0994096 -0.000160213 0)
(0.0993954 -0.000134425 0)
(0.0993783 -0.000100993 0)
(0.0993581 -5.90607e-05 0)
(0.0993345 -7.71844e-06 0)
(0.0993077 5.39983e-05 0)
(0.0992775 0.000127122 0)
(0.099244 0.000212747 0)
(0.0992074 0.000312026 0)
(0.099168 0.000426169 0)
(0.0991263 0.000556434 0)
(0.0990828 0.000704119 0)
(0.0990383 0.00087055 0)
(0.0989939 0.00105706 0)
(0.0989508 0.00126496 0)
(0.0989106 0.00149551 0)
(0.0988751 0.00174986 0)
(0.0988464 0.00202903 0)
(0.0988271 0.0023338 0)
(0.0988199 0.00266467 0)
(0.0988281 0.00302173 0)
(0.098855 0.00340461 0)
(0.0989044 0.00381235 0)
(0.0989801 0.00424331 0)
(0.0990859 0.00469507 0)
(0.0992256 0.00516435 0)
(0.0994025 0.005647 0)
(0.0996195 0.00613797 0)
(0.0998787 0.00663142 0)
(0.100181 0.00712084 0)
(0.100526 0.0075993 0)
(0.100913 0.00805978 0)
(0.101337 0.00849562 0)
(0.101795 0.00890114 0)
(0.100003 -5.86072e-05 0)
(0.100023 -0.000103767 0)
(0.100052 -0.000125079 0)
(0.100086 -0.000119865 0)
(0.10012 -8.75084e-05 0)
(0.100149 -3.1538e-05 0)
(0.10017 4.0226e-05 0)
(0.100179 0.000117385 0)
(0.100175 0.000189623 0)
(0.100157 0.000249073 0)
(0.100127 0.000291556 0)
(0.100087 0.000316516 0)
(0.100041 0.000326056 0)
(0.0999914 0.000323661 0)
(0.0999403 0.000313051 0)
(0.0998899 0.000297448 0)
(0.0998415 0.000279238 0)
(0.099796 0.00025995 0)
(0.0997539 0.000240415 0)
(0.0997152 0.000220971 0)
(0.0996801 0.000201668 0)
(0.0996483 0.000182411 0)
(0.0996197 0.000163064 0)
(0.0995941 0.0001435 0)
(0.0995713 0.000123633 0)
(0.099551 0.000103418 0)
(0.0995331 8.28515e-05 0)
(0.0995175 6.19695e-05 0)
(0.0995038 4.08376e-05 0)
(0.0994919 1.95499e-05 0)
(0.0994817 -1.77416e-06 0)
(0.0994728 -2.29973e-05 0)
(0.0994651 -4.39501e-05 0)
(0.0994584 -6.44442e-05 0)
(0.0994525 -8.42692e-05 0)
(0.099447 -0.000103182 0)
(0.0994419 -0.000120913 0)
(0.0994367 -0.000137164 0)
(0.0994313 -0.000151604 0)
(0.0994254 -0.000163869 0)
(0.0994188 -0.000173557 0)
(0.0994112 -0.000180233 0)
(0.0994023 -0.000183422 0)
(0.0993919 -0.000182612 0)
(0.0993797 -0.000177247 0)
(0.0993656 -0.000166732 0)
(0.0993494 -0.000150432 0)
(0.0993308 -0.000127667 0)
(0.0993097 -9.77123e-05 0)
(0.0992861 -5.98009e-05 0)
(0.0992598 -1.31232e-05 0)
(0.0992309 4.31642e-05 0)
(0.0991995 0.000109952 0)
(0.0991656 0.000188167 0)
(0.0991296 0.000278772 0)
(0.0990918 0.000382753 0)
(0.0990526 0.000501113 0)
(0.0990127 0.000634865 0)
(0.0989729 0.00078501 0)
(0.098934 0.000952525 0)
(0.0988973 0.00113834 0)
(0.0988639 0.00134329 0)
(0.0988355 0.00156812 0)
(0.0988139 0.0018134 0)
(0.098801 0.00207951 0)
(0.098799 0.00236657 0)
(0.0988102 0.0026744 0)
(0.0988374 0.00300243 0)
(0.098883 0.0033497 0)
(0.0989499 0.00371473 0)
(0.0990407 0.00409555 0)
(0.0991579 0.00448961 0)
(0.0993038 0.00489381 0)
(0.0994803 0.00530452 0)
(0.0996889 0.00571761 0)
(0.0999303 0.00612856 0)
(0.100204 0.00653261 0)
(0.10051 0.0069249 0)
(0.100847 0.00730073 0)
(0.101211 0.00765583 0)
(0.101599 0.00798671 0)