/*--------------------------------*- C++ -*----------------------------------*\
| =========                 |                                                 |
| \\      /  F ield         | OpenFOAM: The Open Source CFD Toolbox           |
|  \\    /   O peration     | Version:  4.1                                   |
|   \\  /    A nd           | Web:      www.OpenFOAM.org                      |
|    \\/     M anipulation  |                                                 |
\*---------------------------------------------------------------------------*/
FoamFile
{
    version     2.0;
    format      ascii;
    class       volVectorField;
    location    "0.2";
    object      U;
}
// * * * * * * * * * * * * * * * * * * * * * * * * * * * * * * * * * * * * * //

dimensions      [0 1 -1 0 0 0 0];

internalField   nonuniform List<vector> 
12013
(
(0.0999331 2.03636e-05 0)
(0.0996277 3.3666e-05 0)
(0.0992508 3.14276e-05 0)
(0.0989797 2.20625e-05 0)
(0.0988072 1.52301e-05 0)
(0.0986791 1.29528e-05 0)
(0.0985567 1.34379e-05 0)
(0.0984249 1.4848e-05 0)
(0.0982819 1.62649e-05 0)
(0.0981301 1.74324e-05 0)
(0.0979723 1.83707e-05 0)
(0.0978105 1.91631e-05 0)
(0.0976455 1.98805e-05 0)
(0.0974782 2.05689e-05 0)
(0.0973087 2.12539e-05 0)
(0.097137 2.1948e-05 0)
(0.0969634 2.26575e-05 0)
(0.0967877 2.33851e-05 0)
(0.0966101 2.41316e-05 0)
(0.0964305 2.48944e-05 0)
(0.0962489 2.56695e-05 0)
(0.0960656 2.64506e-05 0)
(0.0958805 2.72306e-05 0)
(0.0956939 2.80015e-05 0)
(0.095506 2.87559e-05 0)
(0.0953171 2.9488e-05 0)
(0.0951274 3.01916e-05 0)
(0.0949374 3.08628e-05 0)
(0.0947473 3.14984e-05 0)
(0.0945574 3.20978e-05 0)
(0.094368 3.2662e-05 0)
(0.0941795 3.31947e-05 0)
(0.0939921 3.36992e-05 0)
(0.0938059 3.41819e-05 0)
(0.0936211 3.46493e-05 0)
(0.093438 3.51095e-05 0)
(0.0932564 3.55705e-05 0)
(0.0930766 3.60398e-05 0)
(0.0928984 3.65266e-05 0)
(0.0927218 3.70386e-05 0)
(0.0925468 3.75838e-05 0)
(0.0923732 3.81703e-05 0)
(0.0922009 3.88052e-05 0)
(0.0920297 3.94958e-05 0)
(0.0918595 4.02481e-05 0)
(0.0916901 4.10672e-05 0)
(0.0915213 4.19589e-05 0)
(0.0913528 4.29292e-05 0)
(0.0911844 4.39844e-05 0)
(0.091016 4.51313e-05 0)
(0.0908472 4.6379e-05 0)
(0.0906778 4.77398e-05 0)
(0.0905076 4.92297e-05 0)
(0.090336 5.08701e-05 0)
(0.0901628 5.26898e-05 0)
(0.0899874 5.47275e-05 0)
(0.0898092 5.70344e-05 0)
(0.0896274 5.96757e-05 0)
(0.089441 6.27361e-05 0)
(0.0892489 6.63265e-05 0)
(0.0890494 7.05887e-05 0)
(0.0888407 7.57064e-05 0)
(0.0886202 8.19204e-05 0)
(0.0883849 8.95469e-05 0)
(0.0881309 9.90046e-05 0)
(0.087853 0.000110856 0)
(0.0875448 0.000125867 0)
(0.0871976 0.000145096 0)
(0.0868003 0.000170027 0)
(0.0863376 0.000202787 0)
(0.0857892 0.000246479 0)
(0.0851267 0.000305726 0)
(0.0843101 0.000387568 0)
(0.0832821 0.000502936 0)
(0.0819587 0.000669154 0)
(0.0802152 0.000914183 0)
(0.0778624 0.00128393 0)
(0.0745959 0.00185715 0)
(0.0699372 0.00279149 0)
(0.0633085 0.00452213 0)
(0.0557564 0.00899353 0)
(0.0999393 6.1824e-05 0)
(0.0996411 0.000102775 0)
(0.0992697 9.62659e-05 0)
(0.0989987 6.78196e-05 0)
(0.098824 4.69672e-05 0)
(0.0986933 3.99613e-05 0)
(0.0985691 4.13857e-05 0)
(0.0984363 4.56492e-05 0)
(0.0982929 4.9951e-05 0)
(0.0981411 5.35053e-05 0)
(0.0979836 5.63673e-05 0)
(0.097822 5.87871e-05 0)
(0.0976576 6.09818e-05 0)
(0.0974907 6.30892e-05 0)
(0.0973217 6.51868e-05 0)
(0.0971507 6.73128e-05 0)
(0.0969776 6.94857e-05 0)
(0.0968026 7.17146e-05 0)
(0.0966256 7.40008e-05 0)
(0.0964467 7.63373e-05 0)
(0.0962659 7.87115e-05 0)
(0.0960832 8.11046e-05 0)
(0.0958989 8.34944e-05 0)
(0.0957131 8.58569e-05 0)
(0.095526 8.81702e-05 0)
(0.0953379 9.0414e-05 0)
(0.095149 9.25727e-05 0)
(0.0949598 9.46321e-05 0)
(0.0947704 9.65835e-05 0)
(0.0945813 9.84243e-05 0)
(0.0943927 0.000100158 0)
(0.0942048 0.000101796 0)
(0.094018 0.00010335 0)
(0.0938325 0.000104836 0)
(0.0936483 0.000106274 0)
(0.0934657 0.000107692 0)
(0.0932847 0.000109112 0)
(0.0931053 0.00011056 0)
(0.0929275 0.00011206 0)
(0.0927513 0.000113636 0)
(0.0925766 0.000115315 0)
(0.0924033 0.000117121 0)
(0.0922312 0.000119075 0)
(0.0920603 0.000121199 0)
(0.0918903 0.000123512 0)
(0.0917211 0.00012603 0)
(0.0915524 0.000128771 0)
(0.0913841 0.000131751 0)
(0.0912159 0.00013499 0)
(0.0910476 0.00013851 0)
(0.090879 0.000142341 0)
(0.0907099 0.000146515 0)
(0.0905398 0.000151083 0)
(0.0903685 0.00015611 0)
(0.0901955 0.000161686 0)
(0.0900205 0.000167925 0)
(0.0898427 0.000174983 0)
(0.0896614 0.000183059 0)
(0.0894757 0.000192409 0)
(0.0892844 0.000203367 0)
(0.0890861 0.000216361 0)
(0.0888788 0.000231946 0)
(0.0886603 0.000250844 0)
(0.0884276 0.000273999 0)
(0.0881771 0.000302664 0)
(0.0879041 0.00033851 0)
(0.0876025 0.000383802 0)
(0.0872646 0.000441645 0)
(0.0868805 0.000516374 0)
(0.0864369 0.000614134 0)
(0.0859163 0.000743799 0)
(0.0852954 0.000918415 0)
(0.0845424 0.0011575 0)
(0.0836139 0.00149072 0)
(0.0824504 0.00196373 0)
(0.0809707 0.00264721 0)
(0.0790668 0.00364976 0)
(0.0765928 0.0051351 0)
(0.0733832 0.00734361 0)
(0.0694836 0.0105552 0)
(0.0661973 0.0146476 0)
(0.0999471 0.000103396 0)
(0.099668 0.00017427 0)
(0.0993104 0.000164609 0)
(0.0990405 0.000117162 0)
(0.0988604 8.18555e-05 0)
(0.0987237 6.97066e-05 0)
(0.0985952 7.18386e-05 0)
(0.0984602 7.8875e-05 0)
(0.098316 8.60673e-05 0)
(0.0981643 9.20546e-05 0)
(0.0980073 9.69031e-05 0)
(0.0978466 0.000101022 0)
(0.0976831 0.000104768 0)
(0.0975173 0.000108371 0)
(0.0973495 0.00011196 0)
(0.0971796 0.000115599 0)
(0.0970079 0.000119319 0)
(0.0968342 0.000123135 0)
(0.0966586 0.00012705 0)
(0.0964812 0.00013105 0)
(0.0963019 0.000135116 0)
(0.0961209 0.000139215 0)
(0.0959382 0.00014331 0)
(0.095754 0.00014736 0)
(0.0955686 0.000151329 0)
(0.0953822 0.000155181 0)
(0.0951951 0.000158889 0)
(0.0950076 0.000162431 0)
(0.0948199 0.000165791 0)
(0.0946324 0.000168965 0)
(0.0944454 0.00017196 0)
(0.0942591 0.000174791 0)
(0.0940737 0.000177481 0)
(0.0938895 0.000180056 0)
(0.0937066 0.000182555 0)
(0.0935252 0.000185017 0)
(0.0933452 0.000187484 0)
(0.0931669 0.00019 0)
(0.09299 0.000192604 0)
(0.0928147 0.00019534 0)
(0.0926408 0.000198252 0)
(0.0924682 0.000201379 0)
(0.0922968 0.000204761 0)
(0.0921265 0.000208431 0)
(0.0919571 0.000212424 0)
(0.0917884 0.000216767 0)
(0.0916203 0.000221489 0)
(0.0914525 0.000226619 0)
(0.0912849 0.000232189 0)
(0.0911172 0.000238239 0)
(0.0909492 0.000244815 0)
(0.0907807 0.000251975 0)
(0.0906114 0.000259805 0)
(0.0904409 0.000268414 0)
(0.0902689 0.000277951 0)
(0.090095 0.000288612 0)
(0.0899184 0.000300655 0)
(0.0897387 0.000314414 0)
(0.0895547 0.000330318 0)
(0.0893656 0.000348919 0)
(0.0891699 0.000370928 0)
(0.088966 0.000397261 0)
(0.0887517 0.000429101 0)
(0.0885244 0.00046799 0)
(0.088281 0.000515955 0)
(0.0880174 0.000575678 0)
(0.0877284 0.000650752 0)
(0.0874077 0.000746049 0)
(0.0870474 0.000868261 0)
(0.0866373 0.0010267 0)
(0.0861647 0.0012345 0)
(0.0856136 0.00151046 0)
(0.0849644 0.00188174 0)
(0.0841931 0.00238784 0)
(0.0832722 0.00308624 0)
(0.082174 0.00405927 0)
(0.0808785 0.00542016 0)
(0.0793903 0.00731141 0)
(0.0777816 0.00988011 0)
(0.0763248 0.0131537 0)
(0.0757336 0.0165431 0)
(0.0999565 0.000143031 0)
(0.0997069 0.000245957 0)
(0.0993715 0.000235493 0)
(0.0991041 0.000170578 0)
(0.0989162 0.000120948 0)
(0.0987704 0.000103146 0)
(0.0986357 0.000105454 0)
(0.0984973 0.000114917 0)
(0.098352 0.000124832 0)
(0.0982004 0.0001332 0)
(0.0980443 0.000140046 0)
(0.0978849 0.000145905 0)
(0.0977229 0.000151259 0)
(0.0975588 0.000156421 0)
(0.0973927 0.000161568 0)
(0.0972248 0.000166791 0)
(0.0970551 0.000172131 0)
(0.0968835 0.00017761 0)
(0.0967101 0.000183228 0)
(0.096535 0.000188972 0)
(0.0963581 0.000194811 0)
(0.0961795 0.0002007 0)
(0.0959994 0.000206586 0)
(0.0958179 0.000212411 0)
(0.0956352 0.000218125 0)
(0.0954515 0.000223678 0)
(0.0952671 0.00022903 0)
(0.0950822 0.000234152 0)
(0.0948972 0.000239019 0)
(0.0947122 0.000243627 0)
(0.0945277 0.000247985 0)
(0.0943438 0.000252113 0)
(0.0941607 0.000256042 0)
(0.0939787 0.000259813 0)
(0.0937979 0.000263478 0)
(0.0936183 0.000267092 0)
(0.0934402 0.000270716 0)
(0.0932634 0.000274408 0)
(0.0930881 0.000278228 0)
(0.0929142 0.000282239 0)
(0.0927416 0.000286499 0)
(0.0925703 0.000291066 0)
(0.0924001 0.000295994 0)
(0.0922309 0.000301334 0)
(0.0920625 0.000307131 0)
(0.0918949 0.000313425 0)
(0.0917279 0.000320256 0)
(0.0915612 0.000327666 0)
(0.0913947 0.000335701 0)
(0.0912282 0.000344415 0)
(0.0910616 0.00035387 0)
(0.0908945 0.000364155 0)
(0.0907267 0.000375386 0)
(0.090558 0.000387717 0)
(0.090388 0.000401356 0)
(0.0902162 0.000416576 0)
(0.0900423 0.000433738 0)
(0.0898654 0.000453302 0)
(0.089685 0.000475861 0)
(0.0894999 0.000502174 0)
(0.0893092 0.000533213 0)
(0.0891112 0.000570219 0)
(0.0889043 0.000614784 0)
(0.0886863 0.000668969 0)
(0.0884546 0.000735446 0)
(0.0882061 0.00081771 0)
(0.0879369 0.000920372 0)
(0.0876425 0.00104957 0)
(0.0873175 0.00121354 0)
(0.0869557 0.00142346 0)
(0.0865501 0.00169459 0)
(0.0860933 0.0020479 0)
(0.0855781 0.00251231 0)
(0.085 0.00312743 0)
(0.0843601 0.00394663 0)
(0.0836722 0.00503886 0)
(0.0829737 0.0064855 0)
(0.0823436 0.0083633 0)
(0.0819261 0.0106974 0)
(0.081957 0.0133446 0)
(0.0827236 0.0157355 0)
(0.0999669 0.000178898 0)
(0.0997544 0.000315339 0)
(0.0994482 0.00030775 0)
(0.0991855 0.000228401 0)
(0.0989888 0.000165251 0)
(0.098832 0.000141256 0)
(0.0986894 0.000142919 0)
(0.0985469 0.000154184 0)
(0.0984002 0.000166465 0)
(0.0982489 0.00017705 0)
(0.098094 0.00018584 0)
(0.0979363 0.000193443 0)
(0.0977764 0.000200437 0)
(0.0976145 0.000207203 0)
(0.0974509 0.000213962 0)
(0.0972855 0.000220824 0)
(0.0971185 0.000227843 0)
(0.0969498 0.000235045 0)
(0.0967795 0.000242431 0)
(0.0966074 0.000249983 0)
(0.0964338 0.000257661 0)
(0.0962586 0.000265409 0)
(0.0960819 0.000273158 0)
(0.0959039 0.000280837 0)
(0.0957248 0.000288377 0)
(0.0955447 0.000295718 0)
(0.095364 0.000302808 0)
(0.0951827 0.000309606 0)
(0.0950013 0.000316085 0)
(0.0948198 0.000322236 0)
(0.0946387 0.00032807 0)
(0.094458 0.000333613 0)
(0.0942781 0.000338905 0)
(0.094099 0.000343998 0)
(0.093921 0.000348957 0)
(0.0937441 0.000353854 0)
(0.0935684 0.000358765 0)
(0.0933939 0.000363766 0)
(0.0932208 0.000368935 0)
(0.0930489 0.000374351 0)
(0.0928782 0.000380091 0)
(0.0927086 0.000386228 0)
(0.0925401 0.000392831 0)
(0.0923726 0.000399965 0)
(0.0922059 0.000407686 0)
(0.0920399 0.000416047 0)
(0.0918745 0.0004251 0)
(0.0917095 0.000434898 0)
(0.0915449 0.000445498 0)
(0.0913803 0.000456968 0)
(0.0912158 0.00046939 0)
(0.091051 0.000482875 0)
(0.0908858 0.000497571 0)
(0.0907199 0.000513674 0)
(0.0905531 0.000531446 0)
(0.090385 0.000551234 0)
(0.0902151 0.000573488 0)
(0.090043 0.000598784 0)
(0.089868 0.000627859 0)
(0.0896894 0.000661651 0)
(0.0895062 0.000701348 0)
(0.0893173 0.000748455 0)
(0.0891215 0.000804887 0)
(0.088917 0.000873086 0)
(0.0887022 0.000956173 0)
(0.088475 0.00105816 0)
(0.0882331 0.00118424 0)
(0.0879739 0.00134115 0)
(0.0876951 0.00153766 0)
(0.0873944 0.00178529 0)
(0.0870703 0.0020991 0)
(0.0867233 0.0024988 0)
(0.0863571 0.00300991 0)
(0.0859813 0.00366488 0)
(0.0856156 0.00450336 0)
(0.0852957 0.00557007 0)
(0.0850811 0.00690689 0)
(0.0850632 0.00853328 0)
(0.0853689 0.0104066 0)
(0.086144 0.0123536 0)
(0.0874772 0.0139826 0)
(0.0999775 0.000209473 0)
(0.0998052 0.000380117 0)
(0.0995329 0.000380114 0)
(0.0992778 0.000290648 0)
(0.0990731 0.000215476 0)
(0.0989051 0.00018483 0)
(0.0987541 0.000184838 0)
(0.0986072 0.000197056 0)
(0.098459 0.000211172 0)
(0.0983081 0.000223697 0)
(0.0981547 0.000234311 0)
(0.0979992 0.000243621 0)
(0.0978418 0.00025226 0)
(0.0976827 0.000260655 0)
(0.0975221 0.000269059 0)
(0.0973599 0.000277601 0)
(0.0971963 0.000286342 0)
(0.0970311 0.000295313 0)
(0.0968644 0.000304514 0)
(0.0966962 0.000313921 0)
(0.0965265 0.000323489 0)
(0.0963555 0.00033315 0)
(0.096183 0.000342822 0)
(0.0960094 0.00035242 0)
(0.0958347 0.00036186 0)
(0.0956591 0.000371069 0)
(0.0954828 0.000379985 0)
(0.095306 0.000388559 0)
(0.0951289 0.000396758 0)
(0.0949518 0.000404571 0)
(0.0947749 0.000412008 0)
(0.0945982 0.000419101 0)
(0.0944222 0.000425897 0)
(0.0942468 0.000432458 0)
(0.0940722 0.000438863 0)
(0.0938986 0.000445196 0)
(0.093726 0.000451547 0)
(0.0935545 0.000458011 0)
(0.0933841 0.000464681 0)
(0.0932147 0.000471652 0)
(0.0930465 0.000479015 0)
(0.0928793 0.000486861 0)
(0.092713 0.00049527 0)
(0.0925477 0.00050432 0)
(0.0923832 0.000514077 0)
(0.0922194 0.000524606 0)
(0.0920563 0.000535967 0)
(0.0918938 0.000548223 0)
(0.0917317 0.000561442 0)
(0.0915699 0.000575704 0)
(0.0914083 0.000591106 0)
(0.0912468 0.000607781 0)
(0.0910852 0.000625901 0)
(0.0909233 0.000645701 0)
(0.090761 0.000667491 0)
(0.090598 0.000691675 0)
(0.0904339 0.000718779 0)
(0.0902685 0.000749472 0)
(0.0901011 0.000784603 0)
(0.0899314 0.000825242 0)
(0.0897586 0.000872729 0)
(0.0895821 0.000928748 0)
(0.089401 0.000995407 0)
(0.0892145 0.00107535 0)
(0.0890217 0.00117189 0)
(0.0888216 0.00128921 0)
(0.0886136 0.00143255 0)
(0.0883973 0.00160852 0)
(0.0881728 0.00182545 0)
(0.0879415 0.00209374 0)
(0.0877067 0.00242634 0)
(0.0874745 0.00283915 0)
(0.0872555 0.00335123 0)
(0.0870673 0.0039845 0)
(0.0869371 0.00476233 0)
(0.0869057 0.00570586 0)
(0.0870302 0.00682603 0)
(0.0873852 0.00810904 0)
(0.0880559 0.00949301 0)
(0.089116 0.0108384 0)
(0.0905749 0.01191 0)
(0.099987 0.000233865 0)
(0.0998541 0.000438616 0)
(0.0996174 0.000451368 0)
(0.0993732 0.000356937 0)
(0.0991631 0.000271876 0)
(0.0989854 0.000234352 0)
(0.0988266 0.000231658 0)
(0.0986754 0.000243851 0)
(0.0985259 0.000259148 0)
(0.0983757 0.000273245 0)
(0.098224 0.000285501 0)
(0.098071 0.000296439 0)
(0.0979165 0.000306697 0)
(0.0977607 0.000316723 0)
(0.0976036 0.000326788 0)
(0.0974451 0.000337033 0)
(0.0972853 0.000347523 0)
(0.0971242 0.000358291 0)
(0.0969618 0.000369337 0)
(0.096798 0.000380633 0)
(0.0966329 0.000392128 0)
(0.0964666 0.000403742 0)
(0.096299 0.000415382 0)
(0.0961304 0.000426952 0)
(0.0959607 0.000438354 0)
(0.0957902 0.000449505 0)
(0.0956191 0.000460334 0)
(0.0954474 0.000470782 0)
(0.0952754 0.000480813 0)
(0.0951032 0.000490411 0)
(0.0949311 0.000499589 0)
(0.0947592 0.00050838 0)
(0.0945876 0.000516837 0)
(0.0944165 0.000525032 0)
(0.094246 0.000533052 0)
(0.0940763 0.000540994 0)
(0.0939073 0.000548961 0)
(0.0937393 0.00055706 0)
(0.0935721 0.000565399 0)
(0.0934059 0.000574086 0)
(0.0932407 0.000583226 0)
(0.0930763 0.000592922 0)
(0.0929129 0.000603265 0)
(0.0927504 0.000614343 0)
(0.0925887 0.000626231 0)
(0.0924278 0.000638999 0)
(0.0922676 0.000652718 0)
(0.0921082 0.000667456 0)
(0.0919494 0.000683288 0)
(0.0917912 0.000700303 0)
(0.0916335 0.000718609 0)
(0.0914762 0.000738355 0)
(0.0913194 0.000759733 0)
(0.0911628 0.000783003 0)
(0.0910063 0.00080851 0)
(0.0908499 0.000836702 0)
(0.0906933 0.000868154 0)
(0.0905364 0.000903594 0)
(0.0903788 0.000943939 0)
(0.0902203 0.00099033 0)
(0.0900607 0.00104418 0)
(0.0898997 0.00110723 0)
(0.0897369 0.00118164 0)
(0.0895723 0.00127004 0)
(0.0894058 0.00137566 0)
(0.0892376 0.00150247 0)
(0.0890686 0.00165527 0)
(0.0889001 0.00183992 0)
(0.0887345 0.00206341 0)
(0.0885758 0.00233405 0)
(0.0884303 0.00266151 0)
(0.0883073 0.00305669 0)
(0.0882205 0.00353132 0)
(0.0881894 0.00409693 0)
(0.0882408 0.00476295 0)
(0.0884101 0.00553326 0)
(0.0887411 0.00640056 0)
(0.0892839 0.00733803 0)
(0.0900864 0.00828893 0)
(0.0911777 0.00915777 0)
(0.0925414 0.00981294 0)
(0.0999948 0.000251966 0)
(0.0998969 0.000489979 0)
(0.0996951 0.000520475 0)
(0.0994647 0.000426508 0)
(0.099253 0.000334185 0)
(0.0990683 0.000289906 0)
(0.0989033 0.000283602 0)
(0.0987486 0.000294793 0)
(0.0985982 0.000310562 0)
(0.0984489 0.000325801 0)
(0.0982993 0.000339464 0)
(0.0981491 0.000351914 0)
(0.0979978 0.000363737 0)
(0.0978456 0.000375374 0)
(0.0976924 0.000387096 0)
(0.097538 0.000399049 0)
(0.0973825 0.000411299 0)
(0.0972259 0.00042388 0)
(0.0970681 0.000436789 0)
(0.0969092 0.000449994 0)
(0.0967491 0.000463436 0)
(0.096588 0.00047703 0)
(0.0964257 0.000490672 0)
(0.0962625 0.000504255 0)
(0.0960984 0.000517673 0)
(0.0959335 0.000530833 0)
(0.095768 0.000543653 0)
(0.0956019 0.000556073 0)
(0.0954354 0.000568046 0)
(0.0952687 0.000579558 0)
(0.0951019 0.000590619 0)
(0.0949351 0.000601264 0)
(0.0947685 0.000611551 0)
(0.0946022 0.000621557 0)
(0.0944363 0.000631375 0)
(0.0942709 0.000641113 0)
(0.0941062 0.000650882 0)
(0.0939421 0.000660799 0)
(0.0937787 0.000670984 0)
(0.0936162 0.000681554 0)
(0.0934544 0.000692625 0)
(0.0932936 0.000704307 0)
(0.0931335 0.000716701 0)
(0.0929744 0.000729898 0)
(0.0928161 0.000743981 0)
(0.0926587 0.000759026 0)
(0.0925023 0.000775105 0)
(0.0923467 0.000792288 0)
(0.092192 0.000810655 0)
(0.0920382 0.000830296 0)
(0.0918853 0.000851326 0)
(0.0917334 0.000873898 0)
(0.0915823 0.000898217 0)
(0.0914322 0.000924555 0)
(0.091283 0.000953272 0)
(0.0911347 0.000984835 0)
(0.0909872 0.00101984 0)
(0.0908406 0.00105903 0)
(0.0906948 0.00110333 0)
(0.0905499 0.00115389 0)
(0.0904059 0.00121209 0)
(0.090263 0.00127961 0)
(0.0901215 0.00135849 0)
(0.0899819 0.00145115 0)
(0.0898449 0.00156048 0)
(0.0897119 0.00168988 0)
(0.0895846 0.00184335 0)
(0.0894658 0.00202548 0)
(0.0893595 0.00224146 0)
(0.089271 0.00249702 0)
(0.0892081 0.0027982 0)
(0.0891809 0.00315097 0)
(0.089203 0.00356058 0)
(0.089292 0.00403039 0)
(0.0894698 0.00456028 0)
(0.0897622 0.00514425 0)
(0.0901982 0.00576731 0)
(0.0908064 0.00640187 0)
(0.0916089 0.00700453 0)
(0.092612 0.00751558 0)
(0.0937943 0.00786511 0)
(0.1 0.000264323 0)
(0.0999315 0.000534099 0)
(0.0997619 0.000586646 0)
(0.0995476 0.000498353 0)
(0.0993383 0.000401689 0)
(0.0991502 0.000351182 0)
(0.0989811 0.00034063 0)
(0.0988242 0.000349958 0)
(0.0986735 0.000365508 0)
(0.0985254 0.000381437 0)
(0.0983782 0.00039624 0)
(0.098231 0.000410052 0)
(0.0980833 0.00042336 0)
(0.0979349 0.000436563 0)
(0.0977858 0.000449922 0)
(0.0976358 0.000463573 0)
(0.097485 0.000477582 0)
(0.0973331 0.000491978 0)
(0.0971804 0.000506754 0)
(0.0970266 0.000521876 0)
(0.0968718 0.000537278 0)
(0.0967161 0.000552868 0)
(0.0965595 0.000568536 0)
(0.096402 0.000584167 0)
(0.0962438 0.000599646 0)
(0.0960847 0.000614874 0)
(0.0959251 0.000629763 0)
(0.0957649 0.000644245 0)
(0.0956043 0.000658273 0)
(0.0954433 0.000671827 0)
(0.0952822 0.000684915 0)
(0.0951209 0.000697575 0)
(0.0949597 0.000709864 0)
(0.0947985 0.000721863 0)
(0.0946376 0.000733669 0)
(0.094477 0.000745393 0)
(0.0943169 0.000757154 0)
(0.0941572 0.000769074 0)
(0.0939981 0.000781278 0)
(0.0938397 0.000793891 0)
(0.0936821 0.000807034 0)
(0.0935252 0.000820821 0)
(0.0933691 0.000835357 0)
(0.093214 0.000850736 0)
(0.0930599 0.000867042 0)
(0.0929067 0.000884349 0)
(0.0927547 0.000902729 0)
(0.0926037 0.000922251 0)
(0.092454 0.000942987 0)
(0.0923056 0.000965027 0)
(0.0921585 0.00098848 0)
(0.0920129 0.00101349 0)
(0.0918689 0.00104027 0)
(0.0917265 0.00106908 0)
(0.0915858 0.00110027 0)
(0.091447 0.0011343 0)
(0.0913102 0.00117175 0)
(0.0911756 0.00121333 0)
(0.0910434 0.00125992 0)
(0.090914 0.00131257 0)
(0.0907877 0.00137257 0)
(0.0906651 0.0014414 0)
(0.090547 0.00152083 0)
(0.0904344 0.00161288 0)
(0.0903287 0.0017199 0)
(0.090232 0.00184451 0)
(0.0901468 0.00198961 0)
(0.0900766 0.00215835 0)
(0.0900261 0.00235395 0)
(0.090001 0.00257957 0)
(0.0900091 0.002838 0)
(0.0900597 0.00313117 0)
(0.0901644 0.00345952 0)
(0.0903369 0.00382115 0)
(0.0905928 0.00421073 0)
(0.0909489 0.00461824 0)
(0.0914216 0.00502771 0)
(0.0920246 0.00541625 0)
(0.0927652 0.00575405 0)
(0.0936396 0.0060062 0)
(0.0946285 0.00613743 0)
(0.100004 0.000271879 0)
(0.0999574 0.00057143 0)
(0.0998161 0.000649388 0)
(0.0996194 0.000571404 0)
(0.0994162 0.000473401 0)
(0.0992282 0.000417575 0)
(0.0990577 0.000402476 0)
(0.0988999 0.000409278 0)
(0.0987497 0.000424001 0)
(0.0986033 0.00044018 0)
(0.0984587 0.000455841 0)
(0.0983148 0.000470843 0)
(0.0981708 0.000485532 0)
(0.0980266 0.000500242 0)
(0.0978818 0.000515198 0)
(0.0977365 0.000530524 0)
(0.0975904 0.000546279 0)
(0.0974436 0.000562482 0)
(0.097296 0.000579124 0)
(0.0971476 0.000596163 0)
(0.0969983 0.00061353 0)
(0.0968483 0.000631127 0)
(0.0966974 0.000648839 0)
(0.0965459 0.000666545 0)
(0.0963935 0.000684127 0)
(0.0962406 0.000701478 0)
(0.096087 0.000718507 0)
(0.0959329 0.000735141 0)
(0.0957783 0.000751331 0)
(0.0956233 0.000767052 0)
(0.095468 0.000782312 0)
(0.0953124 0.000797144 0)
(0.0951568 0.000811606 0)
(0.0950011 0.000825778 0)
(0.0948455 0.000839756 0)
(0.09469 0.000853653 0)
(0.0945349 0.000867586 0)
(0.0943801 0.000881679 0)
(0.0942258 0.000896061 0)
(0.094072 0.000910856 0)
(0.0939189 0.000926187 0)
(0.0937667 0.000942167 0)
(0.0936152 0.0009589 0)
(0.0934648 0.000976478 0)
(0.0933155 0.000994979 0)
(0.0931673 0.00101447 0)
(0.0930205 0.00103502 0)
(0.0928751 0.00105669 0)
(0.0927313 0.00107953 0)
(0.0925892 0.00110362 0)
(0.0924489 0.00112906 0)
(0.0923107 0.00115598 0)
(0.0921748 0.00118455 0)
(0.0920413 0.00121502 0)
(0.0919104 0.00124772 0)
(0.0917825 0.00128304 0)
(0.0916579 0.00132152 0)
(0.0915368 0.00136378 0)
(0.0914198 0.0014106 0)
(0.0913074 0.00146288 0)
(0.0912003 0.00152168 0)
(0.0910994 0.00158821 0)
(0.0910058 0.00166385 0)
(0.090921 0.0017501 0)
(0.0908469 0.00184862 0)
(0.0907858 0.00196114 0)
(0.0907406 0.00208943 0)
(0.0907152 0.00223517 0)
(0.0907139 0.00239979 0)
(0.0907424 0.0025843 0)
(0.0908073 0.00278893 0)
(0.0909164 0.0030128 0)
(0.0910783 0.00325342 0)
(0.0913026 0.0035062 0)
(0.0915993 0.00376386 0)
(0.0919777 0.00401599 0)
(0.0924459 0.0042489 0)
(0.0930087 0.00444578 0)
(0.0936658 0.00458774 0)
(0.0944103 0.00465568 0)
(0.0952268 0.00463324 0)
(0.100006 0.000275731 0)
(0.0999755 0.000602786 0)
(0.0998583 0.000708488 0)
(0.0996795 0.000644682 0)
(0.0994854 0.000548235 0)
(0.0993008 0.000488308 0)
(0.0991312 0.000468717 0)
(0.0989741 0.000472576 0)
(0.0988253 0.000485989 0)
(0.0986811 0.000502025 0)
(0.0985395 0.000518267 0)
(0.098399 0.000534277 0)
(0.098259 0.000550228 0)
(0.098119 0.000566365 0)
(0.0979788 0.000582869 0)
(0.0978382 0.000599838 0)
(0.0976971 0.000617316 0)
(0.0975554 0.000635314 0)
(0.0974131 0.000653812 0)
(0.0972702 0.000672767 0)
(0.0971265 0.0006921 0)
(0.0969822 0.000711712 0)
(0.0968372 0.000731482 0)
(0.0966916 0.000751288 0)
(0.0965453 0.000771009 0)
(0.0963984 0.000790534 0)
(0.096251 0.00080977 0)
(0.0961029 0.00082864 0)
(0.0959544 0.000847093 0)
(0.0958055 0.000865102 0)
(0.0956562 0.000882669 0)
(0.0955065 0.000899824 0)
(0.0953567 0.000916619 0)
(0.0952067 0.000933128 0)
(0.0950566 0.000949446 0)
(0.0949066 0.000965679 0)
(0.0947568 0.000981942 0)
(0.0946073 0.000998355 0)
(0.0944581 0.00101504 0)
(0.0943096 0.00103212 0)
(0.0941617 0.00104972 0)
(0.0940146 0.00106793 0)
(0.0938685 0.00108687 0)
(0.0937234 0.0011066 0)
(0.0935797 0.0011272 0)
(0.0934373 0.00114873 0)
(0.0932965 0.00117123 0)
(0.0931575 0.00119475 0)
(0.0930205 0.00121931 0)
(0.0928857 0.00124498 0)
(0.0927534 0.00127181 0)
(0.0926237 0.00129992 0)
(0.092497 0.00132944 0)
(0.0923735 0.00136056 0)
(0.0922537 0.00139354 0)
(0.0921379 0.00142874 0)
(0.0920266 0.00146656 0)
(0.0919202 0.00150751 0)
(0.0918195 0.0015522 0)
(0.0917252 0.00160132 0)
(0.0916381 0.00165564 0)
(0.0915595 0.00171603 0)
(0.0914907 0.0017834 0)
(0.0914333 0.0018587 0)
(0.0913894 0.00194285 0)
(0.0913615 0.0020367 0)
(0.0913525 0.00214097 0)
(0.0913658 0.00225607 0)
(0.0914055 0.00238202 0)
(0.0914764 0.0025182 0)
(0.0915835 0.00266318 0)
(0.0917327 0.00281446 0)
(0.0919298 0.00296815 0)
(0.0921809 0.0031188 0)
(0.0924914 0.00325918 0)
(0.092866 0.0033803 0)
(0.0933074 0.00347172 0)
(0.0938158 0.00352212 0)
(0.0943882 0.00352042 0)
(0.0950172 0.00345718 0)
(0.0956914 0.00332627 0)
(0.100006 0.000276951 0)
(0.0999873 0.000629151 0)
(0.0998899 0.00076397 0)
(0.0997286 0.000717368 0)
(0.0995456 0.000625138 0)
(0.0993669 0.000562532 0)
(0.0992005 0.000538822 0)
(0.0990456 0.000539576 0)
(0.098899 0.000551346 0)
(0.0987577 0.000566918 0)
(0.0986193 0.000583488 0)
(0.0984825 0.000600322 0)
(0.0983466 0.000617409 0)
(0.0982111 0.000634887 0)
(0.0980755 0.000652879 0)
(0.0979398 0.000671451 0)
(0.0978038 0.000690626 0)
(0.0976674 0.000710401 0)
(0.0975305 0.000730748 0)
(0.097393 0.000751612 0)
(0.097255 0.000772913 0)
(0.0971165 0.000794545 0)
(0.0969773 0.000816388 0)
(0.0968376 0.000838317 0)
(0.0966974 0.000860213 0)
(0.0965565 0.000881962 0)
(0.0964152 0.000903468 0)
(0.0962733 0.000924652 0)
(0.0961309 0.000945461 0)
(0.095988 0.000965865 0)
(0.0958447 0.00098586 0)
(0.095701 0.00100547 0)
(0.0955571 0.00102473 0)
(0.0954129 0.00104372 0)
(0.0952687 0.00106252 0)
(0.0951244 0.00108122 0)
(0.0949803 0.00109993 0)
(0.0948364 0.00111877 0)
(0.094693 0.00113784 0)
(0.0945501 0.00115726 0)
(0.094408 0.00117714 0)
(0.0942667 0.00119757 0)
(0.0941266 0.00121864 0)
(0.0939877 0.00124041 0)
(0.0938502 0.00126294 0)
(0.0937145 0.00128625 0)
(0.0935807 0.00131038 0)
(0.093449 0.00133532 0)
(0.0933197 0.0013611 0)
(0.0931932 0.00138772 0)
(0.0930697 0.00141522 0)
(0.0929496 0.00144363 0)
(0.0928332 0.00147305 0)
(0.0927209 0.0015036 0)
(0.0926131 0.00153546 0)
(0.0925104 0.00156887 0)
(0.0924133 0.00160412 0)
(0.0923226 0.00164155 0)
(0.0922388 0.00168155 0)
(0.092163 0.00172457 0)
(0.0920961 0.00177107 0)
(0.0920395 0.00182152 0)
(0.0919946 0.00187635 0)
(0.091963 0.00193595 0)
(0.0919468 0.00200059 0)
(0.0919483 0.00207035 0)
(0.0919701 0.00214506 0)
(0.0920153 0.00222419 0)
(0.092087 0.00230674 0)
(0.0921888 0.00239111 0)
(0.0923246 0.00247497 0)
(0.0924981 0.00255511 0)
(0.0927129 0.00262733 0)
(0.0929724 0.00268642 0)
(0.0932792 0.00272615 0)
(0.0936347 0.00273954 0)
(0.0940389 0.00271922 0)
(0.0944902 0.00265815 0)
(0.0949847 0.00255046 0)
(0.0955161 0.00239248 0)
(0.0960762 0.0021836 0)
(0.100006 0.000276477 0)
(0.0999943 0.000651554 0)
(0.0999127 0.000816039 0)
(0.0997678 0.000788866 0)
(0.0995972 0.000703182 0)
(0.0994264 0.000639408 0)
(0.0992649 0.000612208 0)
(0.0991136 0.00060993 0)
(0.0989702 0.000619879 0)
(0.0988322 0.000634752 0)
(0.0986975 0.000651436 0)
(0.0985648 0.000668924 0)
(0.0984332 0.00068702 0)
(0.0983022 0.00070575 0)
(0.0981714 0.000725166 0)
(0.0980407 0.000745296 0)
(0.0979098 0.000766138 0)
(0.0977786 0.000787672 0)
(0.0976471 0.000809854 0)
(0.0975152 0.000832624 0)
(0.0973828 0.000855893 0)
(0.09725 0.000879554 0)
(0.0971167 0.000903485 0)
(0.0969829 0.000927564 0)
(0.0968486 0.00095167 0)
(0.0967138 0.000975689 0)
(0.0965784 0.000999523 0)
(0.0964426 0.00102309 0)
(0.0963063 0.00104634 0)
(0.0961695 0.00106923 0)
(0.0960323 0.00109175 0)
(0.0958946 0.00111391 0)
(0.0957567 0.00113575 0)
(0.0956186 0.00115732 0)
(0.0954804 0.00117869 0)
(0.0953422 0.00119994 0)
(0.0952041 0.00122117 0)
(0.0950663 0.00124248 0)
(0.094929 0.00126395 0)
(0.0947924 0.00128571 0)
(0.0946566 0.00130782 0)
(0.0945218 0.00133037 0)
(0.0943883 0.00135343 0)
(0.0942562 0.00137703 0)
(0.0941259 0.0014012 0)
(0.0939976 0.00142594 0)
(0.0938716 0.00145124 0)
(0.0937481 0.00147708 0)
(0.0936275 0.00150343 0)
(0.0935102 0.00153024 0)
(0.0933965 0.00155749 0)
(0.0932869 0.00158516 0)
(0.0931816 0.00161329 0)
(0.0930813 0.00164189 0)
(0.0929864 0.00167105 0)
(0.0928976 0.00170087 0)
(0.0928154 0.00173149 0)
(0.0927405 0.00176307 0)
(0.0926739 0.00179578 0)
(0.0926164 0.00182979 0)
(0.0925692 0.00186524 0)
(0.0925335 0.00190221 0)
(0.0925107 0.00194071 0)
(0.0925024 0.00198063 0)
(0.0925104 0.00202167 0)
(0.0925367 0.00206332 0)
(0.0925834 0.00210477 0)
(0.092653 0.00214488 0)
(0.0927478 0.00218206 0)
(0.0928704 0.00221421 0)
(0.0930232 0.00223869 0)
(0.0932084 0.00225223 0)
(0.093428 0.00225094 0)
(0.0936834 0.00223034 0)
(0.0939755 0.00218555 0)
(0.0943041 0.00211146 0)
(0.094668 0.00200324 0)
(0.0950648 0.00185687 0)
(0.0954909 0.00166984 0)
(0.0959414 0.00144185 0)
(0.0964104 0.00117526 0)
(0.100006 0.00027507 0)
(0.0999978 0.000670985 0)
(0.0999286 0.000865042 0)
(0.0997988 0.000858809 0)
(0.0996408 0.000781608 0)
(0.0994793 0.000718167 0)
(0.0993242 0.000688287 0)
(0.0991777 0.000683236 0)
(0.0990384 0.000691341 0)
(0.0989043 0.000705376 0)
(0.0987736 0.000722009 0)
(0.0986452 0.000740006 0)
(0.0985181 0.000758996 0)
(0.0983918 0.000778889 0)
(0.0982659 0.000799665 0)
(0.0981402 0.000821306 0)
(0.0980145 0.000843783 0)
(0.0978886 0.000867053 0)
(0.0977625 0.000891059 0)
(0.0976362 0.000915729 0)
(0.0975094 0.000940969 0)
(0.0973823 0.000966667 0)
(0.0972548 0.000992704 0)
(0.0971268 0.00101896 0)
(0.0969984 0.0010453 0)
(0.0968695 0.00107163 0)
(0.0967402 0.00109784 0)
(0.0966104 0.00112386 0)
(0.0964801 0.00114961 0)
(0.0963494 0.00117505 0)
(0.0962183 0.00120017 0)
(0.0960868 0.00122495 0)
(0.0959551 0.00124942 0)
(0.0958232 0.00127362 0)
(0.0956912 0.0012976 0)
(0.0955593 0.00132142 0)
(0.0954277 0.00134517 0)
(0.0952964 0.00136892 0)
(0.0951658 0.00139275 0)
(0.0950359 0.00141673 0)
(0.094907 0.00144094 0)
(0.0947793 0.00146543 0)
(0.0946531 0.00149023 0)
(0.0945286 0.00151535 0)
(0.0944062 0.00154078 0)
(0.0942861 0.00156649 0)
(0.0941687 0.00159241 0)
(0.0940542 0.00161848 0)
(0.0939432 0.0016446 0)
(0.0938359 0.00167069 0)
(0.0937328 0.00169666 0)
(0.0936344 0.00172243 0)
(0.0935411 0.00174791 0)
(0.0934534 0.00177307 0)
(0.0933718 0.00179784 0)
(0.0932971 0.0018222 0)
(0.0932299 0.00184612 0)
(0.0931709 0.00186956 0)
(0.093121 0.00189247 0)
(0.0930811 0.00191475 0)
(0.0930523 0.00193624 0)
(0.0930357 0.00195671 0)
(0.0930325 0.00197578 0)
(0.0930443 0.00199294 0)
(0.0930724 0.0020075 0)
(0.0931185 0.00201852 0)
(0.0931842 0.00202483 0)
(0.0932712 0.00202492 0)
(0.0933811 0.00201697 0)
(0.0935156 0.00199875 0)
(0.093676 0.00196771 0)
(0.0938635 0.00192085 0)
(0.0940789 0.00185489 0)
(0.0943225 0.00176625 0)
(0.094594 0.00165128 0)
(0.0948926 0.00150649 0)
(0.0952167 0.00132887 0)
(0.0955639 0.00111645 0)
(0.0959312 0.000868823 0)
(0.0963149 0.000587624 0)
(0.0967106 0.00027686 0)
(0.100005 0.000273326 0)
(0.099999 0.000688334 0)
(0.0999394 0.000911397 0)
(0.099823 0.000926989 0)
(0.0996776 0.000859799 0)
(0.099526 0.000798105 0)
(0.0993785 0.000766438 0)
(0.0992377 0.000759034 0)
(0.0991033 0.000765414 0)
(0.0989737 0.000778566 0)
(0.0988475 0.000795045 0)
(0.0987236 0.000813442 0)