/*--------------------------------*- C++ -*----------------------------------*\
| =========                 |                                                 |
| \\      /  F ield         | OpenFOAM: The Open Source CFD Toolbox           |
|  \\    /   O peration     | Version:  4.1                                   |
|   \\  /    A nd           | Web:      www.OpenFOAM.org                      |
|    \\/     M anipulation  |                                                 |
\*---------------------------------------------------------------------------*/
FoamFile
{
    version     2.0;
    format      ascii;
    class       surfaceScalarField;
    location    "1";
    object      phi;
}
// * * * * * * * * * * * * * * * * * * * * * * * * * * * * * * * * * * * * * //

dimensions      [1 0 -1 0 0 0 0];

internalField   nonuniform List<scalar> 
23692
(
9.30943e-05
-1.47417e-08
9.31179e-05
-2.34968e-08
9.31437e-05
-2.5652e-08
9.31643e-05
-2.0399e-08
9.3173e-05
-8.45409e-09
9.31651e-05
8.22442e-09
9.31388e-05
2.6727e-08
9.30953e-05
4.39699e-08
9.30383e-05
5.75487e-08
9.29727e-05
6.62237e-08
9.29034e-05
6.99546e-08
9.28347e-05
6.95734e-08
9.27693e-05
6.63116e-08
9.27089e-05
6.14039e-08
9.26541e-05
5.58299e-08
9.26051e-05
5.0232e-08
9.25615e-05
4.49366e-08
9.25229e-05
4.00423e-08
9.24889e-05
3.55157e-08
9.24593e-05
3.12596e-08
9.2434e-05
2.71676e-08
9.24127e-05
2.31539e-08
9.23956e-05
1.91494e-08
9.23827e-05
1.51179e-08
9.2374e-05
1.10414e-08
9.23695e-05
6.91702e-09
9.23694e-05
2.74815e-09
9.23735e-05
-1.45365e-09
9.23821e-05
-5.67003e-09
9.23949e-05
-9.88653e-09
9.24121e-05
-1.40837e-08
9.24336e-05
-1.82425e-08
9.24593e-05
-2.2341e-08
9.24892e-05
-2.63569e-08
9.25231e-05
-3.02642e-08
9.25608e-05
-3.40364e-08
9.26023e-05
-3.76425e-08
9.26473e-05
-4.10522e-08
9.26956e-05
-4.42253e-08
9.27469e-05
-4.71266e-08
9.28009e-05
-4.97102e-08
9.28572e-05
-5.19317e-08
9.29153e-05
-5.37399e-08
9.29749e-05
-5.50801e-08
9.30354e-05
-5.58945e-08
9.30962e-05
-5.61181e-08
9.31567e-05
-5.56845e-08
9.3216e-05
-5.45158e-08
9.32734e-05
-5.25313e-08
9.33279e-05
-4.96392e-08
9.33786e-05
-4.57386e-08
9.34243e-05
-4.07175e-08
9.34638e-05
-3.44482e-08
9.34957e-05
-2.67851e-08
9.35183e-05
-1.7561e-08
9.353e-05
-6.58267e-09
9.35288e-05
6.37801e-09
9.35123e-05
2.15903e-08
9.34781e-05
3.93752e-08
9.34232e-05
6.01197e-08
9.3344e-05
8.42929e-08
9.32367e-05
1.12475e-07
9.30965e-05
1.45389e-07
9.29177e-05
1.83937e-07
9.26936e-05
2.29275e-07
9.24158e-05
2.82889e-07
9.20742e-05
3.46725e-07
9.16559e-05
4.23367e-07
9.11446e-05
5.16305e-07
9.05193e-05
6.30342e-07
8.97521e-05
7.72209e-07
8.88055e-05
9.51542e-07
8.7628e-05
1.18242e-06
8.6147e-05
1.48587e-06
8.4258e-05
1.89392e-06
8.18064e-05
2.45633e-06
7.85601e-05
3.25115e-06
7.4162e-05
4.40279e-06
6.80429e-05
6.1238e-06
5.92302e-05
8.81725e-06
1.35604e-05
4.56744e-05
9.9615e-05
-3.03455e-08
9.96403e-05
-4.87015e-08
9.9668e-05
-5.32818e-08
9.96903e-05
-4.24874e-08
9.97e-05
-1.78447e-08
9.9692e-05
1.66207e-08
9.96642e-05
5.49023e-08
9.96181e-05
9.06253e-08
9.95574e-05
1.18793e-07
9.94875e-05
1.36833e-07
9.94135e-05
1.4465e-07
9.934e-05
1.43949e-07
9.927e-05
1.37275e-07
9.92053e-05
1.27181e-07
9.91466e-05
1.15696e-07
9.9094e-05
1.04144e-07
9.90471e-05
9.32103e-08
9.90056e-05
8.31039e-08
9.8969e-05
7.37533e-08
9.89371e-05
6.49643e-08
9.89097e-05
5.65177e-08
9.88867e-05
4.82309e-08
9.8868e-05
3.99718e-08
9.88538e-05
3.16627e-08
9.88441e-05
2.32613e-08
9.88389e-05
1.4761e-08
9.88382e-05
6.17474e-09
9.88422e-05
-2.47351e-09
9.88507e-05
-1.11528e-08
9.88638e-05
-1.98274e-08
9.88816e-05
-2.84603e-08
9.89038e-05
-3.70097e-08
9.89305e-05
-4.54305e-08
9.89616e-05
-5.36782e-08
9.89969e-05
-6.16972e-08
9.90362e-05
-6.94352e-08
9.90795e-05
-7.6829e-08
9.91265e-05
-8.38101e-08
9.9177e-05
-9.03052e-08
9.92305e-05
-9.62316e-08
9.92869e-05
-1.01503e-07
9.93456e-05
-1.06023e-07
9.94063e-05
-1.09686e-07
9.94685e-05
-1.12384e-07
9.95315e-05
-1.13992e-07
9.95947e-05
-1.14381e-07
9.96575e-05
-1.1341e-07
9.97191e-05
-1.10923e-07
9.97785e-05
-1.06752e-07
9.98348e-05
-1.00711e-07
9.9887e-05
-9.25928e-08
9.99338e-05
-8.21648e-08
9.99739e-05
-6.91693e-08
0.000100006
-5.3307e-08
0.000100028
-3.42401e-08
0.000100038
-1.15686e-08
0.000100035
1.51655e-08
0.000100016
4.65104e-08
9.99775e-05
8.31119e-08
9.99174e-05
1.25752e-07
9.98318e-05
1.75376e-07
9.97167e-05
2.33148e-07
9.95671e-05
3.00505e-07
9.93773e-05
3.79247e-07
9.91404e-05
4.71653e-07
9.88481e-05
5.80641e-07
9.84903e-05
7.10001e-07
9.80544e-05
8.64716e-07
9.75247e-05
1.05144e-06
9.68812e-05
1.27921e-06
9.60983e-05
1.56044e-06
9.51426e-05
1.91255e-06
9.397e-05
2.36025e-06
9.2522e-05
2.93913e-06
9.07203e-05
3.70082e-06
8.84616e-05
4.72018e-06
8.56144e-05
6.10344e-06
8.20279e-05
7.99428e-06
7.75828e-05
1.05739e-05
7.24129e-05
1.39921e-05
1.78391e-05
6.8139e-05
0.000106592
-4.68393e-08
0.000106619
-7.57555e-08
0.000106649
-8.30628e-08
0.000106674
-6.65706e-08
0.000106685
-2.85743e-08
0.000106677
2.47235e-08
0.000106648
8.40436e-08
0.0001066
1.39515e-07
0.000106536
1.83385e-07
0.000106462
2.11621e-07
0.000106383
2.24034e-07
0.000106305
2.23223e-07
0.00010623
2.13115e-07
0.000106161
1.97647e-07
0.000106098
1.79966e-07
0.000106041
1.62141e-07
0.000105991
1.45237e-07
0.000105946
1.29599e-07
0.000105906
1.15125e-07
0.000105872
1.01518e-07
0.000105842
8.84512e-08
0.000105817
7.56395e-08
0.000105796
6.28819e-08
0.00010578
5.00541e-08
0.000105769
3.70965e-08
0.000105763
2.39967e-08
0.000105761
1.0772e-08
0.000105764
-2.53872e-09
0.000105772
-1.58884e-08
0.000105785
-2.92221e-08
0.000105802
-4.24818e-08
0.000105825
-5.56047e-08
0.000105852
-6.85225e-08
0.000105883
-8.11578e-08
0.000105919
-9.34382e-08
0.000105959
-1.05272e-07
0.000106003
-1.16565e-07
0.000106051
-1.27211e-07
0.000106103
-1.37097e-07
0.000106157
-1.46096e-07
0.000106215
-1.54074e-07
0.000106275
-1.60882e-07
0.000106336
-1.66361e-07
0.000106399
-1.70338e-07
0.000106463
-1.72628e-07
0.000106527
-1.73029e-07
0.000106591
-1.71322e-07
0.000106653
-1.67273e-07
0.000106712
-1.60622e-07
0.000106768
-1.51082e-07
0.000106819
-1.38339e-07
0.000106865
-1.22041e-07
0.000106903
-1.01789e-07
0.000106933
-7.71344e-08
0.000106952
-4.7558e-08
0.000106959
-1.24621e-08
0.000106951
2.88503e-08
0.000106926
7.71952e-08
0.000106882
1.33544e-07
0.000106814
1.99059e-07
0.000106721
2.75145e-07
0.000106596
3.63515e-07
0.000106436
4.66277e-07
0.000106235
5.86049e-07
0.000105987
7.26117e-07
0.000105683
8.90643e-07
0.000105313
1.08497e-06
0.000104868
1.31601e-06
0.000104332
1.59284e-06
0.00010369
1.9275e-06
0.00010292
2.33611e-06
0.000101998
2.84052e-06
0.000100893
3.47043e-06
9.95715e-05
4.26632e-06
9.7995e-05
5.28281e-06
9.61292e-05
6.59155e-06
9.39578e-05
8.28026e-06
9.15173e-05
1.04402e-05
8.8972e-05
1.31245e-05
8.67572e-05
1.62122e-05
1.90227e-05
8.55789e-05
0.000114058
-6.42875e-08
0.000114087
-1.04767e-07
0.00011412
-1.15224e-07
0.000114147
-9.30207e-08
0.000114159
-4.11667e-08
0.000114153
3.1881e-08
0.000114124
1.13441e-07
0.000114074
1.89965e-07
0.000114007
2.50749e-07
0.000113929
2.90181e-07
0.000113846
3.07895e-07
0.000113763
3.07382e-07
0.000113683
2.9398e-07
0.000113609
2.73076e-07
0.000113542
2.49001e-07
0.000113481
2.24622e-07
0.000113426
2.01441e-07
0.000113377
1.79951e-07
0.000113334
1.60041e-07
0.000113297
1.41329e-07
0.000113264
1.23367e-07
0.000113236
1.05775e-07
0.000113213
8.82792e-08
0.000113195
7.07069e-08
0.000113182
5.29807e-08
0.000113174
3.50796e-08
0.000113171
1.70276e-08
0.000113173
-1.12586e-09
0.00011318
-1.93147e-08
0.000113192
-3.74647e-08
0.000113209
-5.54958e-08
0.00011323
-7.33214e-08
0.000113257
-9.08465e-08
0.000113288
-1.07972e-07
0.000113323
-1.24587e-07
0.000113363
-1.40575e-07
0.000113407
-1.55802e-07
0.000113455
-1.70125e-07
0.000113506
-1.83387e-07
0.000113561
-1.95416e-07
0.000113618
-2.06029e-07
0.000113677
-2.15021e-07
0.000113739
-2.22175e-07
0.000113801
-2.27259e-07
0.000113864
-2.30015e-07
0.000113927
-2.30173e-07
0.000113989
-2.27436e-07
0.000114049
-2.21483e-07
0.000114106
-2.11963e-07
0.00011416
-1.98491e-07
0.000114208
-1.80641e-07
0.00011425
-1.57939e-07
0.000114284
-1.29853e-07
0.000114309
-9.57784e-08
0.000114323
-5.50268e-08
0.000114323
-6.80131e-09
0.000114309
4.98143e-08
0.000114276
1.15896e-07
0.000114223
1.92711e-07
0.000114147
2.81772e-07
0.000114044
3.84893e-07
0.000113909
5.04267e-07
0.000113739
6.42569e-07
0.000113529
8.03086e-07
0.000113271
9.89888e-07
0.00011296
1.20806e-06
0.000112587
1.46402e-06
0.000112143
1.76589e-06
0.000111618
2.12409e-06
0.000111
2.552e-06
0.000110275
3.06694e-06
0.000109431
3.6913e-06
0.000108453
4.4539e-06
0.000107334
5.3913e-06
0.000106075
6.54841e-06
0.000104695
7.97669e-06
0.000103255
9.72647e-06
0.000101875
1.18262e-05
0.000100769
1.42362e-05
0.000100233
1.67536e-05
1.88545e-05
0.000100407
0.000122047
-8.27689e-08
0.000122079
-1.35863e-07
0.000122114
-1.50043e-07
0.000122143
-1.22297e-07
0.000122159
-5.6283e-08
0.000122154
3.72662e-08
0.000122125
1.42164e-07
0.000122075
2.41035e-07
0.000122006
3.20065e-07
0.000121926
3.71885e-07
0.000121838
3.95845e-07
0.000121751
3.96277e-07
0.000121666
3.79928e-07
0.000121587
3.53687e-07
0.000121514
3.23131e-07
0.000121448
2.91984e-07
0.000121389
2.62232e-07
0.000121336
2.34577e-07
0.000121289
2.08916e-07
0.000121248
1.84788e-07
0.000121212
1.61645e-07
0.000121182
1.39013e-07
0.000121156
1.16541e-07
0.000121136
9.40133e-08
0.00012112
7.1321e-08
0.00012111
4.84398e-08
0.000121105
2.53986e-08
0.000121105
2.2595e-09
0.000121111
-2.08936e-08
0.000121121
-4.39666e-08
0.000121136
-6.68582e-08
0.000121157
-8.94545e-08
0.000121182
-1.11639e-07
0.000121212
-1.33277e-07
0.000121246
-1.54233e-07
0.000121285
-1.74351e-07
0.000121328
-1.93463e-07
0.000121374
-2.11385e-07
0.000121424
-2.27916e-07
0.000121477
-2.42838e-07
0.000121532
-2.55912e-07
0.00012159
-2.66883e-07
0.000121649
-2.75472e-07
0.000121709
-2.81381e-07
0.000121769
-2.8429e-07
0.000121829
-2.83849e-07
0.000121888
-2.79687e-07
0.000121944
-2.71397e-07
0.000121997
-2.58537e-07
0.000122045
-2.40624e-07
0.000122088
-2.17123e-07
0.000122124
-1.87444e-07
0.000122152
-1.50924e-07
0.00012217
-1.06816e-07
0.000122175
-5.42675e-08
0.000122168
7.69306e-09
0.000122144
8.01834e-08
0.000122102
1.64502e-07
0.00012204
2.62173e-07
0.000121953
3.74999e-07
0.00012184
5.0512e-07
0.000121696
6.55096e-07
0.000121517
8.28008e-07
0.000121299
1.02759e-06
0.000121037
1.2584e-06
0.000120726
1.526e-06
0.00012036
1.83725e-06
0.000119931
2.20065e-06
0.000119435
2.6267e-06
0.000118866
3.12841e-06
0.000118217
3.72185e-06
0.000117488
4.42664e-06
0.000116682
5.26637e-06
0.000115812
6.26832e-06
0.000114905
7.46203e-06
0.000114013
8.87505e-06
0.000113222
1.05235e-05
0.00011266
1.23937e-05
0.000112492
1.44103e-05
0.000112863
1.63892e-05
1.79926e-05
0.000113731
0.000130596
-1.02356e-07
0.000130629
-1.69199e-07
0.000130667
-1.87832e-07
0.0001307
-1.54926e-07
0.000130719
-7.47081e-08
0.000130717
3.98585e-08
0.000130691
1.69041e-07
0.000130641
2.91537e-07
0.000130571
3.90248e-07
0.000130488
4.5586e-07
0.000130398
4.87288e-07
0.000130306
4.89592e-07
0.000130216
4.70904e-07
0.000130131
4.39626e-07
0.000130053
4.02631e-07
0.000129983
3.6458e-07
0.000129919
3.28013e-07
0.000129861
2.93876e-07
0.00012981
2.62134e-07
0.000129765
2.3227e-07
0.000129726
2.03653e-07
0.000129692
1.75709e-07
0.000129663
1.48021e-07
0.00012964
1.20326e-07
0.000129622
9.24892e-08
0.000129609
6.4476e-08
0.000129602
3.63188e-08
0.0001296
8.09157e-09
0.000129603
-2.01067e-08
0.000129612
-4.81606e-08
0.000129625
-7.59432e-08
0.000129643
-1.0332e-07
0.000129667
-1.30139e-07
0.000129694
-1.56244e-07
0.000129727
-1.81462e-07
0.000129763
-2.05604e-07
0.000129804
-2.28463e-07
0.000129848
-2.49813e-07
0.000129895
-2.69409e-07
0.000129945
-2.86982e-07
0.000129997
-3.02244e-07
0.000130051
-3.14882e-07
0.000130106
-3.24559e-07
0.000130162
-3.30913e-07
0.000130218
-3.33554e-07
0.000130273
-3.32063e-07
0.000130326
-3.2599e-07
0.000130376
-3.14848e-07
0.000130422
-2.98107e-07
0.000130464
-2.7519e-07
0.000130499
-2.45463e-07
0.000130527
-2.08224e-07
0.000130546
-1.62695e-07
0.000130554
-1.07999e-07
0.00013055
-4.3147e-08
0.000130532
3.29834e-08
0.000130497
1.21669e-07
0.000130445
2.24386e-07
0.000130371
3.42853e-07
0.000130275
4.79071e-07
0.000130151
6.35392e-07
0.000129999
8.14587e-07
0.000129815
1.01994e-06
0.000129594
1.25537e-06
0.000129334
1.52552e-06
0.000129031
1.83596e-06
0.000128682
2.19337e-06
0.000128284
2.60569e-06
0.000127836
3.0824e-06
0.000127337
3.63469e-06
0.00012679
4.27556e-06
0.000126204
5.01986e-06
0.000125593
5.8838e-06
0.000124984
6.88387e-06
0.000124419
8.03456e-06
0.000123957
9.34387e-06
0.000123681
1.08056e-05
0.000123694
1.23873e-05
0.000124098
1.40134e-05
0.000124946
1.55477e-05
1.67892e-05
0.000126156
0.000139743
-1.23119e-07
0.000139779
-2.04928e-07
0.000139821
-2.28926e-07
0.000139857
-1.91496e-07
0.00013988
-9.73174e-08
0.000139882
3.84956e-08
0.000139859
1.92716e-07
0.000139811
3.40052e-07
0.000139743
4.59965e-07
0.000139658
5.41e-07
0.000139565
5.81413e-07
0.000139469
5.86842e-07
0.000139375
5.66712e-07
0.000139285
5.30926e-07
0.000139201
4.87708e-07
0.000139125
4.42717e-07
0.000139056
3.9913e-07
0.000138994
3.58219e-07
0.000138938
3.20057e-07
0.000138889
2.84123e-07
0.000138845
2.49711e-07
0.000138808
2.16179e-07
0.000138776
1.83036e-07
0.00013875
1.49973e-07
0.000138729
1.16827e-07
0.000138713
8.3555e-08
0.000138703
5.01866e-08
0.000138699
1.68069e-08
0.000138699
-1.64679e-08
0.000138705
-4.95022e-08
0.000138716
-8.21475e-08
0.000138732
-1.1424e-07
0.000138752
-1.45604e-07
0.000138777
-1.76049e-07
0.000138807
-2.0537e-07
0.00013884
-2.3334e-07
0.000138877
-2.59714e-07
0.000138917
-2.84224e-07
0.000138961
-3.06578e-07
0.000139006
-3.26461e-07
0.000139054
-3.43534e-07
0.000139103
-3.57424e-07
0.000139153
-3.6774e-07
0.000139203
-3.74057e-07
0.000139252
-3.75919e-07
0.0001393
-3.7284e-07
0.000139345
-3.64296e-07
0.000139387
-3.49725e-07
0.000139425
-3.28516e-07
0.000139457
-3.00009e-07
0.000139482
-2.6348e-07
0.0001395
-2.18134e-07
0.000139508
-1.63094e-07
0.000139505
-9.7382e-08
0.000139489
-1.98987e-08
0.000139459
7.058e-08
0.000139413
1.75443e-07
0.000139349
2.9628e-07
0.000139265
4.34914e-07
0.000139158
5.93439e-07
0.000139027
7.74276e-07
0.000138869
9.80231e-07
0.000138682
1.21456e-06
0.000138464
1.48104e-06
0.000138213
1.78406e-06
0.000137928
2.12872e-06
0.000137608
2.52088e-06
0.000137254
2.96727e-06
0.000136869
3.47547e-06
0.000136457
4.05394e-06
0.000136029
4.71176e-06
0.000135598
5.45828e-06
0.000135186
6.30235e-06
0.000134827
7.25096e-06
0.000134561
8.30706e-06
0.000134446
9.46616e-06
0.000134548
1.07114e-05
0.000134935
1.20073e-05
0.000135663
1.32925e-05
0.000136741
1.44764e-05
1.54447e-05
0.000138093
0.000149531
-1.45128e-07
0.00014957
-2.43212e-07
0.000149615
-2.73666e-07
0.000149656
-2.32601e-07
0.000149684
-1.25043e-07
0.000149692
3.19276e-08
0.000149673
2.11699e-07
0.000149629
3.84992e-07
0.000149562
5.27701e-07
0.000149478
6.2599e-07
0.000149384
6.77209e-07
0.000149284
6.87347e-07
0.000149185
6.66987e-07
0.00014909
6.2749e-07
0.000149001
5.78451e-07
0.00014892
5.26611e-07
0.000148845
4.75872e-07
0.000148777
4.27918e-07
0.000148717
3.83008e-07
0.000148663
3.40656e-07
0.000148616
3.00129e-07
0.000148574
2.60719e-07
0.000148539
2.21882e-07
0.000148509
1.83258e-07
0.000148485
1.44659e-07
0.000148466
1.06024e-07
0.000148453
6.73859e-08
0.000148445
2.88343e-08
0.000148443
-9.49893e-09
0.000148446
-4.74595e-08
0.000148453
-8.48723e-08
0.000148466
-1.21553e-07
0.000148483
-1.57293e-07
0.000148504
-1.91869e-07
0.00014853
-2.25045e-07
0.000148559
-2.56557e-07
0.000148592
-2.8612e-07
0.000148627
-3.13425e-07
0.000148665
-3.38134e-07
0.000148705
-3.59887e-07
0.000148747
-3.78289e-07
0.000148789
-3.92922e-07
0.000148832
-4.03333e-07
0.000148874
-4.09043e-07
0.000148915
-4.09535e-07
0.000148954
-4.04262e-07
0.00014899
-3.92633e-07
0.000149022
-3.74019e-07
0.000149049
-3.47743e-07
0.00014907
-3.13073e-07
0.000149084
-2.69214e-07
0.000149089
-2.15301e-07
0.000149084
-1.50385e-07
0.000149068
-7.3416e-08
0.00014904
1.67629e-08
0.000148997
1.21431e-07
0.000148939
2.42029e-07
0.000148863
3.80177e-07
0.000148768
5.37701e-07
0.000148654
7.16664e-07
0.000148517
9.19404e-07
0.000148357
1.14857e-06
0.000148172
1.40714e-06
0.000147963
1.69851e-06
0.000147729
2.02646e-06
0.000147471
2.39522e-06
0.00014719
2.80942e-06
0.000146892
3.2741e-06
0.000146581
3.79455e-06
0.000146267
4.37617e-06
0.000145962
5.02407e-06
0.000145686
5.74262e-06
0.000145462
6.53461e-06
0.00014532
7.40011e-06
0.0001453
8.33492e-06
0.000145446
9.32846e-06
0.000145804
1.03612e-05
0.000146416
1.14023e-05
0.000147309
1.24072e-05
0.000148474
1.33191e-05
1.40747e-05
0.000149851
0.000160005
-1.68437e-07
0.000160046
-2.84179e-07
0.000160095
-3.22366e-07
0.000160142
-2.78819e-07
0.000160176
-1.58781e-07
0.00016019
1.89233e-08
0.000160177
2.24482e-07
0.000160139
4.24707e-07
0.000160075
5.9182e-07
0.000159993
7.09374e-07
0.000159898
7.73492e-07
0.000159796
7.90249e-07
0.000159694
7.71192e-07
0.000159594
7.29056e-07
0.000159499
6.74818e-07
0.000159412
6.16369e-07
0.000159331
5.58437e-07
0.000159258
5.03224e-07
0.000159193
4.51254e-07
0.000159134
4.02147e-07
0.000159082
3.55177e-07
0.000159037
3.09605e-07
0.000158997
2.64838e-07
0.000158964
2.20477e-07
0.000158936
1.76303e-07
0.000158914
1.32237e-07
0.000158898
8.83074e-08
0.000158886
4.4612e-08
0.000158881
1.29217e-09
0.00015888
-4.14756e-08
0.000158884
-8.34957e-08
0.000158892
-1.24561e-07
0.000158905
-1.64429e-07
0.000158922
-2.02848e-07
0.000158943
-2.39545e-07
0.000158967
-2.74223e-07
0.000158994
-3.06557e-07
0.000159023
-3.36196e-07
0.000159055
-3.62761e-07
0.000159088
-3.85845e-07
0.000159122
-4.0501e-07
0.000159156
-4.19787e-07
0.00015919
-4.29674e-07
0.000159223
-4.34137e-07
0.000159254
-4.32612e-07
0.000159282
-4.24493e-07
0.000159307
-4.09141e-07
0.000159327
-3.85872e-07
0.000159341
-3.53956e-07
0.000159349
-3.1261e-07
0.000159349
-2.60994e-07
0.000159341
-1.98199e-07
0.000159322
-1.23237e-07
0.000159293
-3.50322e-08
0.00015925
6.75781e-08
0.000159195
1.85873e-07
0.000159124
3.21269e-07
0.000159038
4.75328e-07
0.000158935
6.49773e-07
0.000158814
8.46509e-07
0.000158674
1.06764e-06
0.000158516
1.31547e-06
0.00015834
1.59255e-06
0.000158146
1.9016e-06
0.000157935
2.24559e-06
0.000157712
2.62761e-06
0.000157479
3.05087e-06
0.000157243
3.51856e-06
0.000157013
4.03365e-06
0.000156799
4.59869e-06
0.000156616
5.21544e-06
0.000156483
5.88436e-06
0.000156422
6.60407e-06
0.00015646
7.37049e-06
0.000156627
8.17598e-06
0.000156956
9.00832e-06
0.000157475
9.84969e-06
0.00015821
1.0676e-05
0.000159168
1.14573e-05
0.000160336
1.21589e-05
1.27463e-05
0.000161672
0.000171212
-1.93096e-07
0.000171256
-3.27942e-07
0.000171309
-3.75274e-07
0.000171362
-3.30622e-07
0.000171403
-1.99306e-07
0.000171424
-1.62529e-09
0.000171419
2.29678e-07
0.000171387
4.57631e-07
0.000171329
6.50724e-07
0.00017125
7.89644e-07
0.000171156
8.68974e-07
0.000171053
8.9454e-07
0.000170947
8.78615e-07
0.000170843
8.35185e-07
0.000170743
7.76595e-07
0.00017065
7.11953e-07
0.000170564
6.46909e-07
0.000170485
5.84295e-07
0.000170414
5.25001e-07
0.000170351
4.68828e-07
0.000170294
4.15113e-07
0.000170244
3.63111e-07
0.000170201
3.12202e-07
0.000170163
2.61952e-07
0.000170131
2.1211e-07
0.000170106
1.62584e-07
0.000170085
1.13391e-07
0.00017007
6.46318e-08
0.00017006
1.64608e-08
0.000170055
-3.09331e-08
0.000170055
-7.7324e-08
0.000170058
-1.22498e-07
0.000170066
-1.66164e-07
0.000170078
-2.08049e-07
0.000170093
-2.47851e-07
0.000170111
-2.85229e-07
0.000170131
-3.19825e-07
0.000170153
-3.5125e-07
0.000170177
-3.79087e-07
0.000170202
-4.02886e-07
0.000170226
-4.22168e-07
0.000170251
-4.36421e-07
0.000170275
-4.45102e-07
0.000170296
-4.47636e-07
0.000170315
-4.43413e-07
0.000170331
-4.31793e-07
0.000170343
-4.12094e-07
0.000170349
-3.83598e-07
0.00017035
-3.45543e-07
0.000170343
-2.97124e-07
0.000170329
-2.37477e-07
0.000170305
-1.65686e-07
0.000170272
-8.07672e-08
0.000170228
1.83263e-08
0.000170172
1.32717e-07
0.000170104
2.63618e-07
0.000170022
4.12344e-07
0.000169927
5.80308e-07
0.000169817
7.6903e-07
0.000169693
9.80141e-07
0.000169554
1.21538e-06
0.000169403
1.47659e-06
0.000169239
1.76569e-06
0.000169065
2.08466e-06
0.000168885
2.43549e-06
0.000168702
2.82008e-06
0.000168522
3.24019e-06
0.000168353
3.69727e-06
0.000168203
4.19229e-06
0.000168086
4.72549e-06
0.000168014
5.29613e-06
0.000168006
5.90215e-06
0.000168079
6.53973e-06
0.000168256
7.20294e-06
0.000168557
7.88326e-06
0.000169005
8.56932e-06
0.000169617
9.24663e-06
0.000170404
9.89781e-06
0.000171367
1.05032e-05
0.000172492
1.10424e-05
1.14964e-05
0.00017375
0.000183205
-2.19116e-07
0.000183251
-3.74555e-07
0.000183309
-4.32544e-07
0.000183367
-3.88325e-07
0.000183415
-2.47168e-07
0.000183445
-3.05504e-08
0.000183449
2.26176e-07
0.000183425
4.82437e-07
0.000183374
7.02966e-07
0.0001833
8.65374e-07
0.000183208
9.62348e-07
0.000183105
9.99114e-07
0.000182997
9.88394e-07
0.000182888
9.45263e-07
0.000182784
8.83397e-07
0.000182685
8.1316e-07
0.000182593
7.41238e-07
0.000182509
6.71196e-07
0.000182433
6.04399e-07
0.000182364
5.40913e-07
0.000182302
4.80195e-07
0.000182247
4.21539e-07
0.000182199
3.64315e-07
0.000182158
3.08064e-07
0.000182122
2.52512e-07
0.000182091
1.97546e-07
0.000182067
1.43175e-07
0.000182047
8.9498e-08
0.000182032
3.66747e-08
0.000182022
-1.50882e-08
0.000182017
-6.55445e-08
0.000182015
-1.14461e-07
0.000182017
-1.6152e-07
0.000182022
-2.06408e-07
0.00018203
-2.48812e-07
0.00018204
-2.8834e-07
0.000182053
-3.24608e-07
0.000182066
-3.57193e-07
0.000182081
-3.85642e-07
0.000182095
-4.09471e-07
0.00018211
-4.28167e-07
0.000182123
-4.41185e-07
0.000182134
-4.47948e-07
0.000182143
-4.47853e-07
0.000182149
-4.40263e-07
0.000182151
-4.24512e-07
0.000182148
-3.999e-07
0.00018214
-3.65695e-07
0.000182125
-3.2113e-07
0.000182102
-2.654e-07
0.000182072
-1.97661e-07
0.000182033
-1.17022e-07
0.000181985
-2.25527e-08
0.000181926
8.67182e-08
0.000181857
2.11816e-07
0.000181777
3.53827e-07
0.000181686
5.13887e-07
0.000181583
6.93182e-07
0.000181469
8.92942e-07
0.000181345
1.11444e-06
0.000181211
1.35895e-06
0.00018107
1.62777e-06
0.000180924
1.92214e-06
0.000180775
2.24323e-06
0.000180629
2.59205e-06
0.00018049
2.96939e-06
0.000180364
3.37573e-06
0.00018026
3.81108e-06
0.000180188
4.27486e-06
0.000180157
4.76571e-06
0.000180182
5.28134e-06
0.000180276
5.8183e-06
0.000180453
6.37179e-06
0.00018073
6.93553e-06
0.000181122
7.50162e-06
0.00018164
8.06059e-06
0.000182294
8.60149e-06
0.000183089
9.11228e-06
0.000184021
9.58047e-06
0.000185079
9.99407e-06
1.0343e-05
0.000186241
0.000196037
-2.46508e-07
0.000196086
-4.24005e-07
0.000196148
-4.94199e-07
0.000196212
-4.52039e-07
0.000196268
-3.02628e-07
0.000196307
-6.83119e-08
0.00019632
2.13273e-07
0.000196306
4.98185e-07
0.000196262
7.47433e-07
0.000196194
9.3535e-07
0.000196105
1.0524e-06
0.000196003
1.10285e-06
0.000195894
1.09957e-06
0.000195782
1.05853e-06
0.000195673
9.94668e-07
0.00019557
9.19641e-07
0.000195472
8.41247e-07
0.000195382
7.63897e-07
0.000195301
6.8954e-07
0.000195226
6.18591e-07
0.00019516
5.50697e-07
0.0001951
4.85234e-07
0.000195047
4.21589e-07
0.000195
3.59294e-07
0.000194959
2.98054e-07
0.000194924
2.37737e-07
0.000194894
1.78343e-07
0.00019487
1.19966e-07
0.000194849
6.27707e-08
0.000194834
6.97203e-09
0.000194822
-4.71465e-08
0.000194813
-9.93721e-08
0.000194808
-1.49327e-07
0.000194806
-1.96662e-07
0.000194805
-2.41095e-07
0.000194807
-2.82143e-07
0.00019481
-3.1942e-07
0.000194813
-3.52471e-07
0.000194817
-3.80817e-07
0.00019482
-4.03943e-07
0.000194822
-4.2132e-07
0.000194822
-4.32372e-07
0.00019482
-4.36507e-07
0.000194814
-4.33107e-07
0.000194805
-4.21525e-07
0.000194792
-4.01089e-07
0.000194773
-3.71103e-07
0.000194748
-3.30847e-07
0.000194716
-2.79575e-07
0.000194678
-2.16518e-07
0.000194631
-1.40881e-07
0.000194576
-5.18449e-08
0.000194513
5.14193e-08
0.00019444
1.69765e-07
0.000194359
3.04073e-07
0.000194268
4.55237e-07
0.000194169
6.24156e-07
0.000194061
8.1173e-07
0.000193946
1.01884e-06
0.000193824
1.24634e-06
0.000193699
1.49501e-06
0.000193572
1.76557e-06
0.000193447
2.05859e-06
0.000193326
2.37446e-06
0.000193216
2.71335e-06
0.000193121
3.0751e-06
0.000193048
3.45916e-06
0.000193005
3.86452e-06
0.000193001
4.28957e-06
0.000193045
4.732e-06
0.000193148
5.18877e-06
0.000193321
5.65594e-06
0.000193575
6.12868e-06
0.000193919
6.60123e-06
0.000194364
7.06698e-06
0.000194916
7.51854e-06
0.00019558
7.94804e-06
0.000196355
8.3474e-06
0.000197236
8.70881e-06
0.000198215
9.02531e-06
9.29156e-06
0.000199276
0.000209767
-2.75228e-07
0.00020982
-4.76219e-07
0.000209886
-5.60125e-07
0.000209956
-5.21631e-07
0.00021002
-3.65582e-07
0.000210067
-1.14925e-07
0.00021009
1.90768e-07
0.000210085
5.04444e-07
0.00021005
7.83447e-07
0.000209988
9.98692e-07
0.000209904
1.13813e-06
0.000209804
1.20472e-06
0.000209694
1.21116e-06
0.000209581
1.17413e-06
0.000209468
1.10973e-06
0.00020936
1.03091e-06
0.000209257
9.46648e-07
0.000209162
8.62294e-07
0.000209074
7.80477e-07
0.000208995
7.02059e-07
0.000208922
6.26939e-07
0.000208857
5.54624e-07
0.000208799
4.84551e-07
0.000208747
4.16258e-07
0.0002087
3.4944e-07
0.00020866
2.83952e-07
0.000208624
2.19777e-07
0.000208593
1.57008e-07
0.000208566
9.58105e-08
0.000208543
3.64095e-08
0.000208524
-2.09205e-08
0.000208508
-7.58954e-08
0.000208494
-1.28164e-07
0.000208482
-1.77362e-07
0.000208472
-2.23121e-07
0.000208463
-2.65001e-07
0.000208455
-3.02568e-07
0.000208447
-3.35344e-07
0.000208438
-3.62836e-07
0.000208427
-3.84504e-07
0.000208415
-3.99825e-07
0.000208401
-4.08197e-07
0.000208383
-4.09033e-07
0.000208362
-4.01713e-07
0.000208336
-3.85606e-07
0.000208305
-3.60051e-07
0.000208269
-3.24381e-07
0.000208227
-2.77917e-07
0.000208178
-2.19964e-07
0.000208122
-1.49817e-07
0.000208059
-6.67728e-08
0.000207988
2.98724e-08
0.00020791
1.40816e-07
0.000207824
2.66757e-07
0.000207731
4.08379e-07
0.000207632
5.66341e-07
0.000207526
7.41267e-07
0.000207416
9.33732e-07
0.000207302
1.14424e-06
0.000207186
1.37322e-06
0.000207072
1.62097e-06
0.000206961
1.88765e-06
0.000206858
2.17322e-06
0.000206767
2.47745e-06
0.000206692
2.79979e-06
0.000206639
3.13939e-06
0.000206615
3.49501e-06
0.000206626
3.86497e-06
0.000206679
4.24713e-06
0.000206784
4.63878e-06
0.000206947
5.03668e-06
0.000207177
5.43702e-06
0.000207482
5.83546e-06
0.000207867
6.22716e-06
0.000208338
6.6069e-06
0.000208898
6.96924e-06
0.000209548
7.30868e-06
0.000210286
7.61992e-06
0.000211108
7.89814e-06
0.000212004
8.13938e-06
8.34089e-06
0.000212965
0.00022446
-3.05218e-07
0.000224515
-5.31036e-07
0.000224585
-6.30059e-07
0.00022466
-5.96736e-07
0.000224731
-4.35595e-07
0.000224787
-1.69953e-07
0.00022482
1.58988e-07
0.000224824
5.01325e-07
0.000224798
8.1084e-07
0.000224743
1.05495e-06
0.000224664
1.21884e-06
0.000224567
1.30386e-06
0.000224458
1.32227e-06
0.000224343
1.29123e-06
0.000224227
1.22788e-06
0.000224115
1.14643e-06
0.000224007
1.0571e-06
0.000223907
9.66246e-07
0.000223813
8.77268e-07
0.000223728
7.91547e-07
0.00022365
7.09312e-07
0.000223579
6.30242e-07
0.000223514
5.53863e-07
0.000223456
4.79739e-07
0.000223403
4.07567e-07
0.000223356
3.3719e-07
0.000223313
2.68582e-07
0.000223274
2.01829e-07
0.00022324
1.37096e-07
0.000223209
7.4612e-08
0.00022318
1.46574e-08
0.000223155
-4.24561e-08
0.000223131
-9.63769e-08
0.000223108
-1.46726e-07
0.000223087
-1.93097e-07
0.000223066
-2.35051e-07
0.000223044
-2.72144e-07
0.000223022
-3.03874e-07
0.000222999
-3.29749e-07
0.000222973
-3.49228e-07
0.000222945
-3.6177e-07
0.000222914
-3.66806e-07
0.000222879
-3.6375e-07
0.00022284
-3.51994e-07
0.000222796
-3.30967e-07
0.000222747
-3.0002e-07
0.000222693
-2.58552e-07
0.000222632
-2.05949e-07
0.000222565
-1.41595e-07
0.000222492
-6.48859e-08
0.000222412
2.47573e-08
0.000222326
1.27896e-07
0.000222233
2.4507e-07
0.000222135
3.76782e-07
0.000222032
5.23491e-07
0.000221925
6.85598e-07
0.000221815
8.63432e-07
0.000221704
1.05724e-06
0.000221593
1.26716e-06
0.000221486
1.49321e-06
0.000221384
1.73525e-06
0.000221291
1.99297e-06
0.00022121
2.26586e-06
0.000221147
2.55317e-06
0.000221105
2.85389e-06
0.00022109
3.16669e-06
0.000221107
3.48995e-06
0.000221163
3.82167e-06
0.000221262
4.15953e-06
0.000221412
4.50081e-06
0.000221619
4.84246e-06
0.000221886
5.18113e-06
0.000222221
5.51316e-06
0.000222625
5.83473e-06
0.000223102
6.14192e-06
0.000223652
6.43084e-06
0.000224274
6.69775e-06
0.000224966
6.93924e-06
0.000225723
7.15241e-06
0.000226539
7.33503e-06
7.48578e-06
0.000227405
0.000240181
-3.3638e-07
0.000240238
-5.88231e-07
0.000240312
-7.0361e-07
0.000240393
-6.7678e-07
0.00024047
-5.11926e-07
0.000240533
-2.32567e-07
0.000240574
1.18734e-07
0.000240587
4.8946e-07
0.00024057
8.2996e-07
0.000240522
1.10412e-06
0.000240448
1.29422e-06
0.000240355
1.39972e-06
0.000240247
1.43219e-06
0.000240131
1.40907e-06
0.000240014
1.34842e-06
0.000239897
1.26567e-06
0.000239786
1.17226e-06
0.00023968
1.07562e-06
0.000239581
9.79995e-07
0.000239489
8.87349e-07
0.000239405
7.98295e-07
0.000239327
7.12744e-07
0.000239256
6.30338e-07
0.00023919
5.50696e-07
0.00023913
4.73527e-07
0.000239075
3.98672e-07
0.000239024
3.261e-07
0.000238976
2.55884e-07
0.000238932
1.8819e-07
0.000238891
1.23248e-07
0.000238852
6.13385e-08
0.000238815
2.78796e-09
0.000238779
-5.20422e-08
0.000238744
-1.02773e-07
0.000238709
-1.48982e-07
0.000238673
-1.90218e-07
0.000238637
-2.26053e-07
0.000238599
-2.55963e-07
0.000238559
-2.79476e-07
0.000238516
-2.96062e-07
0.00023847
-3.05187e-07
0.00023842
-3.06311e-07
0.000238367
-2.98882e-07
0.000238308
-2.82346e-07
0.000238245
-2.56153e-07
0.000238177
-2.19749e-07
0.000238103
-1.72582e-07
0.000238023
-1.14172e-07
0.000237937
-4.39762e-08
0.000237846
3.84702e-08
0.00023775
1.33602e-07
0.000237649
2.4182e-07
0.000237543
3.63477e-07
0.000237434
4.98864e-07
0.000237322
6.482e-07
0.000237209
8.11626e-07
0.000237096
9.89184e-07
0.000236985
1.18081e-06
0.000236879
1.38632e-06
0.00023678
1.60536e-06
0.000236691
1.83746e-06
0.000236615
2.08195e-06
0.000236556
2.33794e-06
0.000236518
2.60438e-06
0.000236505
2.87994e-06
0.000236522
3.16309e-06
0.000236573
3.45203e-06
0.000236663
3.74474e-06
0.000236796
4.03895e-06
0.000236978
4.33218e-06
0.000237211
4.62178e-06
0.0002375
4.90493e-06