/*--------------------------------*- C++ -*----------------------------------*\
| =========                 |                                                 |
| \\      /  F ield         | OpenFOAM: The Open Source CFD Toolbox           |
|  \\    /   O peration     | Version:  4.1                                   |
|   \\  /    A nd           | Web:      www.OpenFOAM.org                      |
|    \\/     M anipulation  |                                                 |
\*---------------------------------------------------------------------------*/
FoamFile
{
    version     2.0;
    format      ascii;
    class       volVectorField;
    location    "0.4";
    object      U;
}
// * * * * * * * * * * * * * * * * * * * * * * * * * * * * * * * * * * * * * //

dimensions      [0 1 -1 0 0 0 0];

internalField   nonuniform List<vector> 
12013
(
(0.0999932 3.93137e-06 0)
(0.0999225 1.11682e-05 0)
(0.0997639 1.83887e-05 0)
(0.0995477 2.22471e-05 0)
(0.099319 2.22931e-05 0)
(0.0991101 2.01901e-05 0)
(0.0989301 1.78333e-05 0)
(0.0987733 1.62737e-05 0)
(0.098629 1.56969e-05 0)
(0.0984887 1.58431e-05 0)
(0.0983476 1.63772e-05 0)
(0.0982038 1.7055e-05 0)
(0.0980569 1.77469e-05 0)
(0.0979075 1.8406e-05 0)
(0.0977559 1.90257e-05 0)
(0.0976026 1.96162e-05 0)
(0.0974479 2.01894e-05 0)
(0.0972921 2.0755e-05 0)
(0.0971353 2.13191e-05 0)
(0.0969776 2.18839e-05 0)
(0.0968191 2.24499e-05 0)
(0.09666 2.30156e-05 0)
(0.0965003 2.35771e-05 0)
(0.0963402 2.41303e-05 0)
(0.0961799 2.46703e-05 0)
(0.0960196 2.51912e-05 0)
(0.0958595 2.56878e-05 0)
(0.0956998 2.61551e-05 0)
(0.095541 2.6589e-05 0)
(0.0953831 2.69863e-05 0)
(0.0952266 2.73454e-05 0)
(0.0950716 2.76653e-05 0)
(0.0949185 2.79473e-05 0)
(0.0947674 2.81934e-05 0)
(0.0946186 2.84078e-05 0)
(0.0944722 2.85957e-05 0)
(0.0943284 2.87639e-05 0)
(0.0941872 2.892e-05 0)
(0.0940486 2.90727e-05 0)
(0.0939127 2.92319e-05 0)
(0.0937794 2.94089e-05 0)
(0.0936485 2.96149e-05 0)
(0.0935199 2.98627e-05 0)
(0.0933933 3.01655e-05 0)
(0.0932685 3.05384e-05 0)
(0.0931452 3.09965e-05 0)
(0.093023 3.1557e-05 0)
(0.0929014 3.22384e-05 0)
(0.09278 3.30613e-05 0)
(0.0926583 3.40496e-05 0)
(0.0925356 3.52293e-05 0)
(0.0924113 3.66313e-05 0)
(0.0922846 3.82923e-05 0)
(0.0921546 4.02561e-05 0)
(0.0920205 4.25742e-05 0)
(0.091881 4.53102e-05 0)
(0.0917349 4.85423e-05 0)
(0.0915807 5.23653e-05 0)
(0.0914168 5.68978e-05 0)
(0.0912409 6.22878e-05 0)
(0.0910507 6.87202e-05 0)
(0.0908434 7.64298e-05 0)
(0.0906152 8.57148e-05 0)
(0.090362 9.69604e-05 0)
(0.0900785 0.000110667 0)
(0.0897582 0.000127493 0)
(0.0893927 0.000148317 0)
(0.0889717 0.000174331 0)
(0.0884817 0.000207172 0)
(0.0879052 0.000249137 0)
(0.0872191 0.000303502 0)
(0.0863919 0.000375044 0)
(0.0853806 0.000470863 0)
(0.0841251 0.000601757 0)
(0.0825392 0.000784501 0)
(0.0804979 0.00104574 0)
(0.0778159 0.00142872 0)
(0.0741997 0.00200726 0)
(0.069193 0.00292955 0)
(0.0622578 0.0046084 0)
(0.0544393 0.00889907 0)
(0.0999944 1.19302e-05 0)
(0.0999254 3.41054e-05 0)
(0.0997693 5.62582e-05 0)
(0.0995552 6.81443e-05 0)
(0.0993279 6.83557e-05 0)
(0.0991195 6.19647e-05 0)
(0.0989394 5.47694e-05 0)
(0.0987822 4.99966e-05 0)
(0.0986374 4.82224e-05 0)
(0.0984968 4.86593e-05 0)
(0.0983556 5.02841e-05 0)
(0.0982117 5.23509e-05 0)
(0.098065 5.44643e-05 0)
(0.0979157 5.64784e-05 0)
(0.0977644 5.83743e-05 0)
(0.0976114 6.01822e-05 0)
(0.0974571 6.19379e-05 0)
(0.0973016 6.36712e-05 0)
(0.0971452 6.53992e-05 0)
(0.0969879 6.71307e-05 0)
(0.0968298 6.8866e-05 0)
(0.0966711 7.06002e-05 0)
(0.0965118 7.23226e-05 0)
(0.0963521 7.40199e-05 0)
(0.0961922 7.56764e-05 0)
(0.0960323 7.7275e-05 0)
(0.0958726 7.87997e-05 0)
(0.0957134 8.02354e-05 0)
(0.0955549 8.15695e-05 0)
(0.0953974 8.27924e-05 0)
(0.0952412 8.38984e-05 0)
(0.0950865 8.48856e-05 0)
(0.0949336 8.5757e-05 0)
(0.0947827 8.65201e-05 0)
(0.094634 8.71864e-05 0)
(0.0944877 8.77726e-05 0)
(0.0943439 8.82987e-05 0)
(0.0942026 8.87887e-05 0)
(0.094064 8.92694e-05 0)
(0.0939279 8.97712e-05 0)
(0.0937943 9.03272e-05 0)
(0.0936631 9.09735e-05 0)
(0.0935341 9.17484e-05 0)
(0.0934071 9.26933e-05 0)
(0.0932818 9.38526e-05 0)
(0.0931579 9.52744e-05 0)
(0.0930351 9.70104e-05 0)
(0.0929128 9.91177e-05 0)
(0.0927907 0.000101659 0)
(0.0926682 0.000104707 0)
(0.0925447 0.000108341 0)
(0.0924195 0.000112656 0)
(0.0922919 0.000117765 0)
(0.0921611 0.000123798 0)
(0.0920261 0.000130914 0)
(0.0918858 0.000139308 0)
(0.0917389 0.000149214 0)
(0.0915841 0.000160923 0)
(0.0914196 0.000174793 0)
(0.0912434 0.000191272 0)
(0.0910532 0.000210918 0)
(0.0908462 0.000234439 0)
(0.090619 0.000262734 0)
(0.0903675 0.000296956 0)
(0.0900868 0.000338601 0)
(0.0897708 0.000389631 0)
(0.0894117 0.000452652 0)
(0.0890001 0.000531171 0)
(0.0885238 0.000629985 0)
(0.0879673 0.000755756 0)
(0.0873105 0.000917898 0)
(0.0865271 0.00112994 0)
(0.0855819 0.00141167 0)
(0.0844283 0.0017925 0)
(0.0830036 0.00231675 0)
(0.0812244 0.00305176 0)
(0.0789819 0.00409948 0)
(0.076133 0.00561197 0)
(0.0725191 0.00781094 0)
(0.0681935 0.0109507 0)
(0.0644335 0.0148856 0)
(0.0999954 2.00019e-05 0)
(0.0999299 5.79294e-05 0)
(0.0997795 9.59377e-05 0)
(0.099571 0.000116571 0)
(0.0993474 0.000117271 0)
(0.0991403 0.000106592 0)
(0.0989599 9.44067e-05 0)
(0.0988016 8.62626e-05 0)
(0.0986557 8.31888e-05 0)
(0.0985143 8.38787e-05 0)
(0.0983726 8.66044e-05 0)
(0.0982288 9.00985e-05 0)
(0.0980823 9.36874e-05 0)
(0.0979335 9.71176e-05 0)
(0.0977827 0.000100354 0)
(0.0976304 0.000103446 0)
(0.0974768 0.000106452 0)
(0.0973222 0.000109422 0)
(0.0971666 0.000112385 0)
(0.0970101 0.000115355 0)
(0.096853 0.000118333 0)
(0.0966951 0.000121309 0)
(0.0965368 0.000124267 0)
(0.096378 0.000127183 0)
(0.0962191 0.000130031 0)
(0.0960601 0.000132781 0)
(0.0959014 0.000135407 0)
(0.095743 0.000137883 0)
(0.0955854 0.000140188 0)
(0.0954287 0.000142306 0)
(0.0952733 0.000144225 0)
(0.0951193 0.000145945 0)
(0.094967 0.000147469 0)
(0.0948166 0.000148812 0)
(0.0946684 0.000149992 0)
(0.0945224 0.000151038 0)
(0.0943788 0.000151984 0)
(0.0942376 0.000152872 0)
(0.0940989 0.000153747 0)
(0.0939627 0.000154662 0)
(0.0938288 0.000155672 0)
(0.0936972 0.00015684 0)
(0.0935676 0.000158232 0)
(0.09344 0.000159917 0)
(0.0933139 0.000161973 0)
(0.0931891 0.000164481 0)
(0.0930652 0.000167529 0)
(0.0929418 0.000171216 0)
(0.0928185 0.000175648 0)
(0.0926947 0.000180946 0)
(0.0925698 0.00018725 0)
(0.0924432 0.000194721 0)
(0.0923141 0.000203545 0)
(0.0921818 0.000213948 0)
(0.0920453 0.000226199 0)
(0.0919036 0.000240623 0)
(0.0917555 0.000257616 0)
(0.0915996 0.000277666 0)
(0.0914342 0.000301375 0)
(0.0912576 0.000329487 0)
(0.0910675 0.000362934 0)
(0.0908613 0.000402887 0)
(0.0906359 0.000450827 0)
(0.0903877 0.000508644 0)
(0.0901121 0.000578773 0)
(0.0898037 0.000664381 0)
(0.089456 0.000769632 0)
(0.0890609 0.000900071 0)
(0.0886084 0.00106317 0)
(0.0880863 0.00126912 0)
(0.0874793 0.00153203 0)
(0.0867687 0.00187164 0)
(0.0859315 0.00231583 0)
(0.0849401 0.00290427 0)
(0.0837629 0.00369328 0)
(0.0823679 0.00476177 0)
(0.0807302 0.00621575 0)
(0.0788491 0.0081853 0)
(0.0767901 0.0107991 0)
(0.0748142 0.0140635 0)
(0.0736125 0.0173816 0)
(0.0999963 2.78925e-05 0)
(0.0999361 8.20782e-05 0)
(0.0997948 0.000136705 0)
(0.0995954 0.00016696 0)
(0.099378 0.00016881 0)
(0.0991733 0.000154168 0)
(0.0989926 0.000137047 0)
(0.0988325 0.000125438 0)
(0.0986848 0.000120937 0)
(0.0985421 0.000121777 0)
(0.0983998 0.000125546 0)
(0.0982559 0.000130451 0)
(0.0981099 0.000135529 0)
(0.0979618 0.00014041 0)
(0.097812 0.000145034 0)
(0.0976608 0.000149464 0)
(0.0975084 0.00015378 0)
(0.0973551 0.00015805 0)
(0.0972008 0.000162313 0)
(0.0970458 0.000166588 0)
(0.09689 0.000170877 0)
(0.0967337 0.000175167 0)
(0.0965769 0.000179432 0)
(0.0964197 0.00018364 0)
(0.0962623 0.000187752 0)
(0.0961049 0.00019173 0)
(0.0959476 0.000195534 0)
(0.0957908 0.000199128 0)
(0.0956347 0.000202481 0)
(0.0954794 0.00020557 0)
(0.0953253 0.000208383 0)
(0.0951725 0.000210916 0)
(0.0950213 0.000213176 0)
(0.094872 0.000215181 0)
(0.0947246 0.000216961 0)
(0.0945793 0.000218555 0)
(0.0944363 0.000220013 0)
(0.0942955 0.000221393 0)
(0.094157 0.000222763 0)
(0.0940208 0.000224196 0)
(0.0938867 0.000225774 0)
(0.0937548 0.000227583 0)
(0.0936247 0.000229719 0)
(0.0934964 0.000232284 0)
(0.0933694 0.000235386 0)
(0.0932436 0.000239142 0)
(0.0931185 0.000243679 0)
(0.0929939 0.000249135 0)
(0.0928691 0.000255665 0)
(0.0927438 0.000263442 0)
(0.0926173 0.000272662 0)
(0.092489 0.000283553 0)
(0.0923583 0.000296382 0)
(0.0922244 0.000311467 0)
(0.0920864 0.000329184 0)
(0.0919432 0.000349993 0)
(0.0917939 0.000374448 0)
(0.0916371 0.00040323 0)
(0.0914713 0.000437172 0)
(0.0912949 0.000477306 0)
(0.0911059 0.000524913 0)
(0.0909019 0.000581591 0)
(0.0906803 0.000649349 0)
(0.0904379 0.00073073 0)
(0.090171 0.000828973 0)
(0.0898752 0.000948244 0)
(0.0895453 0.00109394 0)
(0.0891752 0.00127314 0)
(0.0887579 0.00149515 0)
(0.0882852 0.00177241 0)
(0.0877478 0.00212158 0)
(0.0871359 0.00256513 0)
(0.0864394 0.00313334 0)
(0.0856502 0.0038668 0)
(0.0847651 0.00481877 0)
(0.0837925 0.00605613 0)
(0.0827632 0.00765498 0)
(0.0817471 0.00968256 0)
(0.0808762 0.0121504 0)
(0.0803704 0.0149008 0)
(0.0804999 0.0173601 0)
(0.0999972 3.53664e-05 0)
(0.0999439 0.000105857 0)
(0.0998148 0.000177653 0)
(0.0996279 0.000218557 0)
(0.0994193 0.000222615 0)
(0.0992183 0.00020474 0)
(0.0990373 0.000182993 0)
(0.0988751 0.000167918 0)
(0.0987251 0.000161838 0)
(0.0985807 0.000162652 0)
(0.0984376 0.000167325 0)
(0.0982937 0.000173557 0)
(0.0981483 0.000180089 0)
(0.0980012 0.000186419 0)
(0.0978528 0.000192454 0)
(0.0977032 0.000198259 0)
(0.0975525 0.000203932 0)
(0.0974009 0.000209553 0)
(0.0972486 0.000215172 0)
(0.0970955 0.000220812 0)
(0.0969418 0.000226474 0)
(0.0967876 0.000232139 0)
(0.0966329 0.000237777 0)
(0.0964779 0.000243344 0)
(0.0963227 0.000248792 0)
(0.0961676 0.00025407 0)
(0.0960125 0.000259126 0)
(0.0958579 0.000263916 0)
(0.0957039 0.000268399 0)
(0.0955507 0.000272548 0)
(0.0953985 0.000276344 0)
(0.0952476 0.000279785 0)
(0.0950982 0.000282878 0)
(0.0949504 0.00028565 0)
(0.0948044 0.000288138 0)
(0.0946603 0.000290395 0)
(0.0945182 0.000292484 0)
(0.0943782 0.000294485 0)
(0.0942403 0.000296482 0)
(0.0941044 0.000298573 0)
(0.0939704 0.000300864 0)
(0.0938384 0.000303471 0)
(0.093708 0.000306517 0)
(0.0935791 0.000310135 0)
(0.0934514 0.000314467 0)
(0.0933247 0.000319667 0)
(0.0931986 0.000325899 0)
(0.0930727 0.000333346 0)
(0.0929466 0.000342206 0)
(0.0928198 0.000352705 0)
(0.0926918 0.000365098 0)
(0.0925621 0.00037968 0)
(0.09243 0.000396795 0)
(0.0922947 0.000416849 0)
(0.0921554 0.000440327 0)
(0.0920114 0.000467812 0)
(0.0918615 0.000500009 0)
(0.0917047 0.000537776 0)
(0.0915396 0.000582158 0)
(0.0913647 0.000634443 0)
(0.0911785 0.000696212 0)
(0.090979 0.000769428 0)
(0.090764 0.000856528 0)
(0.090531 0.000960562 0)
(0.0902773 0.00108536 0)
(0.0899998 0.00123578 0)
(0.0896948 0.00141799 0)
(0.0893587 0.00163987 0)
(0.0889876 0.00191157 0)
(0.0885777 0.00224616 0)
(0.0881258 0.00266051 0)
(0.0876302 0.00317631 0)
(0.0870924 0.00382117 0)
(0.0865192 0.00462943 0)
(0.0859267 0.00564197 0)
(0.0853459 0.00690335 0)
(0.0848302 0.00845294 0)
(0.0844627 0.0103044 0)
(0.0843591 0.0124059 0)
(0.0846522 0.0145736 0)
(0.0854187 0.0164081 0)
(0.0999981 4.21577e-05 0)
(0.0999529 0.000128516 0)
(0.0998385 0.000217774 0)
(0.0996672 0.000270487 0)
(0.0994697 0.000278216 0)
(0.0992738 0.000258272 0)
(0.0990929 0.000232503 0)
(0.0989286 0.000214079 0)
(0.098776 0.000206262 0)
(0.0986297 0.000206804 0)
(0.0984857 0.000212159 0)
(0.0983419 0.00021956 0)
(0.0981974 0.000227452 0)
(0.0980517 0.000235191 0)
(0.0979051 0.00024263 0)
(0.0977574 0.000249826 0)
(0.097609 0.000256886 0)
(0.0974598 0.000263897 0)
(0.0973099 0.000270917 0)
(0.0971594 0.000277969 0)
(0.0970083 0.000285054 0)
(0.0968568 0.000292149 0)
(0.0967049 0.000299216 0)
(0.0965528 0.000306203 0)
(0.0964005 0.00031305 0)
(0.0962482 0.000319695 0)
(0.0960961 0.000326077 0)
(0.0959443 0.000332142 0)
(0.0957931 0.000337842 0)
(0.0956426 0.000343142 0)
(0.095493 0.000348021 0)
(0.0953446 0.000352477 0)
(0.0951975 0.00035652 0)
(0.0950518 0.000360182 0)
(0.0949078 0.000363511 0)
(0.0947654 0.00036657 0)
(0.0946248 0.000369441 0)
(0.0944861 0.000372217 0)
(0.0943491 0.000375006 0)
(0.094214 0.000377928 0)
(0.0940805 0.000381115 0)
(0.0939487 0.000384708 0)
(0.0938183 0.000388861 0)
(0.0936891 0.000393737 0)
(0.093561 0.000399513 0)
(0.0934337 0.000406376 0)
(0.0933068 0.000414531 0)
(0.0931799 0.000424201 0)
(0.0930528 0.000435631 0)
(0.092925 0.000449097 0)
(0.0927959 0.000464908 0)
(0.0926652 0.000483425 0)
(0.0925321 0.000505063 0)
(0.0923961 0.000530313 0)
(0.0922565 0.000559755 0)
(0.0921124 0.000594085 0)
(0.0919631 0.000634139 0)
(0.0918075 0.000680926 0)
(0.0916447 0.000735669 0)
(0.0914734 0.000799857 0)
(0.0912924 0.000875305 0)
(0.0911002 0.000964236 0)
(0.0908952 0.00106938 0)
(0.0906759 0.00119409 0)
(0.0904403 0.00134252 0)
(0.0901869 0.00151982 0)
(0.0899139 0.00173236 0)
(0.0896199 0.00198808 0)
(0.089304 0.00229684 0)
(0.0889665 0.00267087 0)
(0.0886094 0.00312518 0)
(0.0882375 0.00367804 0)
(0.08786 0.00435105 0)
(0.0874927 0.00516877 0)
(0.0871607 0.00615687 0)
(0.086902 0.00733791 0)
(0.0867701 0.00872256 0)
(0.0868342 0.0102941 0)
(0.0871731 0.0119845 0)
(0.0878524 0.0136451 0)
(0.0888751 0.01503 0)
(0.099999 4.80154e-05 0)
(0.0999624 0.000149341 0)
(0.0998644 0.000256079 0)
(0.0997107 0.00032183 0)
(0.0995265 0.000335048 0)
(0.0993371 0.000314612 0)
(0.0991573 0.000285734 0)
(0.0989911 0.000264226 0)
(0.098836 0.00025453 0)
(0.0986879 0.000254504 0)
(0.0985432 0.000260243 0)
(0.0983997 0.000268585 0)
(0.0982563 0.000277689 0)
(0.0981124 0.000286752 0)
(0.0979679 0.000295557 0)
(0.0978227 0.000304138 0)
(0.097677 0.000312596 0)
(0.0975306 0.00032102 0)
(0.0973837 0.00032947 0)
(0.0972363 0.000337971 0)
(0.0970885 0.000346518 0)
(0.0969403 0.000355085 0)
(0.0967918 0.000363627 0)
(0.0966431 0.000372083 0)
(0.0964943 0.000380385 0)
(0.0963455 0.000388461 0)
(0.0961969 0.000396239 0)
(0.0960486 0.000403657 0)
(0.0959008 0.00041066 0)
(0.0957537 0.000417209 0)
(0.0956074 0.000423282 0)
(0.0954621 0.000428872 0)
(0.0953179 0.000433997 0)
(0.0951749 0.000438693 0)
(0.0950333 0.000443017 0)
(0.0948932 0.000447044 0)
(0.0947546 0.000450871 0)
(0.0946176 0.000454609 0)
(0.0944821 0.000458385 0)
(0.0943481 0.000462342 0)
(0.0942156 0.000466634 0)
(0.0940844 0.000471431 0)
(0.0939544 0.000476914 0)
(0.0938254 0.000483276 0)
(0.0936972 0.000490727 0)
(0.0935697 0.000499488 0)
(0.0934424 0.0005098 0)
(0.0933151 0.000521926 0)
(0.0931875 0.000536154 0)
(0.0930591 0.000552805 0)
(0.0929296 0.000572241 0)
(0.0927985 0.00059488 0)
(0.0926654 0.0006212 0)
(0.0925296 0.000651764 0)
(0.0923906 0.000687234 0)
(0.0922478 0.000728397 0)
(0.0921005 0.00077619 0)
(0.091948 0.000831737 0)
(0.0917894 0.000896385 0)
(0.091624 0.000971756 0)
(0.0914509 0.0010598 0)
(0.0912692 0.00116289 0)
(0.091078 0.00128385 0)
(0.0908765 0.00142612 0)
(0.090664 0.00159387 0)
(0.0904401 0.0017921 0)
(0.0902049 0.00202686 0)
(0.089959 0.00230541 0)
(0.0897042 0.00263639 0)
(0.0894439 0.00303003 0)
(0.0891836 0.00349816 0)
(0.0889322 0.00405418 0)
(0.0887028 0.00471253 0)
(0.0885144 0.00548763 0)
(0.0883934 0.00639167 0)
(0.0883745 0.0074307 0)
(0.0885008 0.00859825 0)
(0.0888208 0.00986609 0)
(0.0893805 0.0111729 0)
(0.0902065 0.0124147 0)
(0.0912799 0.0134481 0)
(0.0999998 5.2761e-05 0)
(0.0999718 0.000167768 0)
(0.0998904 0.000291715 0)
(0.0997555 0.000371713 0)
(0.099586 0.000392478 0)
(0.0994046 0.000373472 0)
(0.0992272 0.000342683 0)
(0.09906 0.000318523 0)
(0.0989031 0.000306865 0)
(0.0987535 0.000305956 0)
(0.0986084 0.000311735 0)
(0.0984655 0.000320733 0)
(0.0983235 0.000330849 0)
(0.0981817 0.000341112 0)
(0.0980397 0.000351215 0)
(0.0978974 0.000361149 0)
(0.0977548 0.000370996 0)
(0.0976117 0.000380839 0)
(0.0974683 0.000390735 0)
(0.0973245 0.000400705 0)
(0.0971804 0.000410741 0)
(0.097036 0.000420812 0)
(0.0968914 0.000430865 0)
(0.0967467 0.000440832 0)
(0.0966019 0.000450637 0)
(0.0964572 0.000460199 0)
(0.0963127 0.00046944 0)
(0.0961684 0.000478287 0)
(0.0960246 0.000486684 0)
(0.0958813 0.000494585 0)
(0.0957388 0.000501966 0)
(0.0955971 0.000508823 0)
(0.0954563 0.000515176 0)
(0.0953166 0.000521066 0)
(0.095178 0.000526559 0)
(0.0950406 0.000531744 0)
(0.0949044 0.000536726 0)
(0.0947696 0.000541637 0)
(0.094636 0.00054662 0)
(0.0945036 0.000551839 0)
(0.0943724 0.000557472 0)
(0.0942423 0.000563711 0)
(0.0941132 0.000570765 0)
(0.0939849 0.000578856 0)
(0.0938572 0.00058822 0)
(0.0937299 0.000599113 0)
(0.0936028 0.000611808 0)
(0.0934757 0.000626603 0)
(0.0933482 0.000643823 0)
(0.09322 0.00066383 0)
(0.0930909 0.000687031 0)
(0.0929604 0.000713888 0)
(0.0928281 0.000744931 0)
(0.0926937 0.000780778 0)
(0.0925567 0.00082215 0)
(0.0924166 0.000869895 0)
(0.092273 0.000925016 0)
(0.0921255 0.000988699 0)
(0.0919734 0.00106235 0)
(0.0918165 0.00114764 0)
(0.0916541 0.00124656 0)
(0.0914861 0.00136144 0)
(0.0913122 0.00149506 0)
(0.0911324 0.0016507 0)
(0.0909471 0.00183221 0)
(0.090757 0.0020441 0)
(0.0905635 0.00229161 0)
(0.0903692 0.00258076 0)
(0.0901774 0.00291838 0)
(0.0899936 0.00331204 0)
(0.0898253 0.0037699 0)
(0.0896828 0.00430025 0)
(0.0895801 0.00491088 0)
(0.0895353 0.00560784 0)
(0.0895712 0.00639354 0)
(0.0897148 0.00726402 0)
(0.0899966 0.00820517 0)
(0.0904463 0.00918826 0)
(0.0910876 0.0101658 0)
(0.0919277 0.0110702 0)
(0.0929458 0.0118199 0)
(0.1 5.63259e-05 0)
(0.0999802 0.000183463 0)
(0.0999147 0.000324088 0)
(0.0997984 0.00041942 0)
(0.0996443 0.000449868 0)
(0.0994724 0.000434421 0)
(0.0992988 0.000403154 0)
(0.0991322 0.00037695 0)
(0.0989744 0.000363342 0)
(0.0988241 0.000361265 0)
(0.0986791 0.000366727 0)
(0.0985372 0.000376068 0)
(0.098397 0.000386962 0)
(0.0982576 0.000398269 0)
(0.0981185 0.000409573 0)
(0.0979795 0.000420803 0)
(0.0978403 0.000432011 0)
(0.0977009 0.000443263 0)
(0.0975614 0.000454606 0)
(0.0974216 0.000466054 0)
(0.0972816 0.000477595 0)
(0.0971414 0.00048919 0)
(0.0970011 0.00050078 0)
(0.0968608 0.000512292 0)
(0.0967204 0.000523641 0)
(0.0965802 0.000534741 0)
(0.0964401 0.000545505 0)
(0.0963003 0.000555859 0)
(0.0961609 0.000565739 0)
(0.0960219 0.000575099 0)
(0.0958835 0.000583913 0)
(0.0957458 0.000592178 0)
(0.0956089 0.000599916 0)
(0.0954728 0.000607176 0)
(0.0953376 0.000614031 0)
(0.0952033 0.000620577 0)
(0.09507 0.000626936 0)
(0.0949378 0.000633249 0)
(0.0948065 0.000639678 0)
(0.0946762 0.000646406 0)
(0.0945468 0.000653628 0)
(0.0944183 0.000661561 0)
(0.0942905 0.000670434 0)
(0.0941633 0.000680495 0)
(0.0940366 0.000692007 0)
(0.0939102 0.00070525 0)
(0.0937839 0.000720526 0)
(0.0936576 0.000738162 0)
(0.093531 0.000758514 0)
(0.0934039 0.000781974 0)
(0.0932761 0.000808981 0)
(0.0931472 0.00084003 0)
(0.093017 0.000875684 0)
(0.0928852 0.000916592 0)
(0.0927517 0.000963506 0)
(0.092616 0.0010173 0)
(0.092478 0.00107899 0)
(0.0923374 0.00114978 0)
(0.0921941 0.00123106 0)
(0.092048 0.00132444 0)
(0.0918992 0.00143182 0)
(0.0917477 0.0015554 0)
(0.0915941 0.00169769 0)
(0.0914391 0.0018616 0)
(0.0912838 0.00205043 0)
(0.09113 0.00226788 0)
(0.0909801 0.00251808 0)
(0.0908375 0.00280552 0)
(0.0907069 0.00313494 0)
(0.0905943 0.00351117 0)
(0.0905078 0.00393883 0)
(0.0904574 0.00442184 0)
(0.0904557 0.00496275 0)
(0.0905177 0.00556176 0)
(0.0906607 0.00621545 0)
(0.0909036 0.00691515 0)
(0.0912653 0.00764516 0)
(0.0917624 0.00838108 0)
(0.0924049 0.00908899 0)
(0.0931917 0.00972658 0)
(0.0941053 0.0102478 0)
(0.100001 5.87613e-05 0)
(0.0999873 0.000196362 0)
(0.0999358 0.000352926 0)
(0.099837 0.000464461 0)
(0.0996984 0.000506627 0)
(0.099537 0.000496922 0)
(0.0993689 0.000466754 0)
(0.0992043 0.000439282 0)
(0.0990471 0.000423865 0)
(0.0988971 0.000420415 0)
(0.0987529 0.000425234 0)
(0.0986125 0.000434605 0)
(0.0984745 0.00044603 0)
(0.0983379 0.000458204 0)
(0.098202 0.00047059 0)
(0.0980665 0.000483043 0)
(0.0979311 0.000495567 0)
(0.0977957 0.000508203 0)
(0.0976603 0.000520981 0)
(0.0975248 0.000533906 0)
(0.0973892 0.000546956 0)
(0.0972536 0.000560088 0)
(0.0971179 0.000573235 0)
(0.0969822 0.000586318 0)
(0.0968466 0.000599249 0)
(0.0967111 0.000611934 0)
(0.0965757 0.000624284 0)
(0.0964406 0.00063622 0)
(0.0963059 0.000647677 0)
(0.0961715 0.000658605 0)
(0.0960375 0.000668981 0)
(0.0959041 0.000678802 0)
(0.0957713 0.000688095 0)
(0.0956391 0.00069691 0)
(0.0955076 0.000705329 0)
(0.0953768 0.000713455 0)
(0.0952467 0.00072142 0)
(0.0951174 0.000729378 0)
(0.0949889 0.000737502 0)
(0.094861 0.000745991 0)
(0.0947338 0.000755056 0)
(0.0946073 0.000764931 0)
(0.0944813 0.000775866 0)
(0.0943558 0.000788125 0)
(0.0942307 0.000801993 0)
(0.0941059 0.00081777 0)
(0.0939812 0.00083578 0)
(0.0938565 0.000856368 0)
(0.0937316 0.000879911 0)
(0.0936065 0.00090682 0)
(0.093481 0.00093755 0)
(0.0933548 0.000972611 0)
(0.093228 0.00101258 0)
(0.0931003 0.0010581 0)
(0.0929717 0.00110993 0)
(0.0928421 0.00116893 0)
(0.0927114 0.00123608 0)
(0.0925798 0.00131252 0)
(0.0924474 0.00139955 0)
(0.0923144 0.00149865 0)
(0.0921813 0.00161152 0)
(0.0920487 0.00174006 0)
(0.0919176 0.00188641 0)
(0.0917893 0.00205292 0)
(0.0916655 0.00224217 0)
(0.0915485 0.00245691 0)
(0.0914414 0.00270001 0)
(0.091348 0.00297435 0)
(0.0912733 0.0032827 0)
(0.0912232 0.00362743 0)
(0.0912051 0.00401027 0)
(0.0912277 0.00443185 0)
(0.091301 0.00489122 0)
(0.0914362 0.00538518 0)
(0.0916453 0.00590757 0)
(0.09194 0.00644854 0)
(0.0923311 0.00699389 0)
(0.0928263 0.00752478 0)
(0.0934283 0.00801806 0)
(0.0941329 0.00844773 0)
(0.0949266 0.00878768 0)
(0.100001 6.02192e-05 0)
(0.0999926 0.000206658 0)
(0.0999529 0.000378281 0)
(0.0998696 0.000506606 0)
(0.0997458 0.000562269 0)
(0.0995956 0.000560379 0)
(0.0994346 0.000532938 0)
(0.0992739 0.000505107 0)
(0.0991187 0.000488173 0)
(0.0989703 0.00048326 0)
(0.0988277 0.000487184 0)
(0.0986894 0.000496306 0)
(0.098554 0.000508023 0)
(0.0984205 0.000520881 0)
(0.098288 0.000534221 0)
(0.0981563 0.000547808 0)
(0.0980249 0.000561591 0)
(0.0978937 0.000575575 0)
(0.0977627 0.000589768 0)
(0.0976317 0.000604161 0)
(0.0975007 0.00061872 0)
(0.0973698 0.000633395 0)
(0.0972389 0.000648115 0)
(0.0971081 0.000662796 0)
(0.0969773 0.000677342 0)
(0.0968467 0.00069166 0)
(0.0967162 0.000705657 0)
(0.096586 0.000719254 0)
(0.096456 0.000732381 0)
(0.0963263 0.000744993 0)
(0.096197 0.000757064 0)
(0.096068 0.000768596 0)
(0.0959395 0.000779614 0)
(0.0958114 0.000790177 0)
(0.0956838 0.000800367 0)
(0.0955567 0.000810296 0)
(0.0954301 0.000820101 0)
(0.095304 0.000829944 0)
(0.0951785 0.00084001 0)
(0.0950535 0.000850505 0)
(0.094929 0.000861656 0)
(0.0948049 0.000873706 0)
(0.0946813 0.000886919 0)
(0.0945581 0.000901572 0)
(0.0944352 0.000917963 0)
(0.0943126 0.000936405 0)
(0.0941902 0.000957231 0)
(0.0940679 0.000980798 0)
(0.0939457 0.00100749 0)
(0.0938236 0.00103771 0)
(0.0937015 0.00107194 0)
(0.0935793 0.00111065 0)
(0.0934571 0.00115442 0)
(0.0933349 0.00120387 0)
(0.0932127 0.00125972 0)
(0.0930908 0.00132275 0)
(0.0929692 0.00139388 0)
(0.0928483 0.00147411 0)
(0.0927285 0.0015646 0)
(0.0926105 0.0016666 0)
(0.0924948 0.00178152 0)
(0.0923826 0.00191089 0)
(0.0922752 0.00205634 0)
(0.0921742 0.0022196 0)
(0.0920817 0.00240244 0)
(0.0920002 0.00260663 0)
(0.0919331 0.00283383 0)
(0.091884 0.00308548 0)
(0.0918576 0.00336263 0)
(0.0918592 0.00366577 0)
(0.0918949 0.00399454 0)
(0.0919715 0.00434746 0)
(0.0920963 0.00472163 0)
(0.092277 0.00511232 0)
(0.0925209 0.00551274 0)
(0.0928347 0.00591375 0)
(0.0932236 0.0063038 0)
(0.0936903 0.00666917 0)
(0.0942339 0.0069945 0)
(0.0948493 0.00726393 0)
(0.0955265 0.0074626 0)
(0.100001 6.09124e-05 0)
(0.0999963 0.000214724 0)
(0.0999659 0.000400463 0)
(0.0998957 0.00054587 0)
(0.0997856 0.000616448 0)
(0.099647 0.000624213 0)
(0.0994943 0.000601075 0)
(0.0993389 0.000573883 0)
(0.0991873 0.000555868 0)
(0.0990416 0.000549541 0)
(0.0989016 0.000552418 0)
(0.098766 0.000561076 0)
(0.0986337 0.000572876 0)
(0.0985036 0.000586248 0)
(0.0983749 0.000600411 0)
(0.0982471 0.00061504 0)
(0.0981199 0.000630017 0)
(0.0979931 0.000645307 0)
(0.0978666 0.000660888 0)
(0.0977402 0.000676734 0)
(0.0976139 0.0006928 0)
(0.0974878 0.000709026 0)
(0.0973618 0.000725334 0)
(0.0972358 0.000741636 0)
(0.09711 0.000757836 0)
(0.0969843 0.000773836 0)
(0.0968588 0.000789546 0)
(0.0967335 0.000804882 0)
(0.0966083 0.00081978 0)
(0.0964834 0.000834192 0)
(0.0963587 0.000848095 0)
(0.0962342 0.00086149 0)
(0.0961101 0.000874409 0)
(0.0959862 0.000886907 0)
(0.0958627 0.000899073 0)
(0.0957394 0.00091102 0)
(0.0956165 0.000922889 0)
(0.095494 0.000934847 0)
(0.0953718 0.000947084 0)
(0.09525 0.000959812 0)
(0.0951285 0.000973262 0)
(0.0950074 0.000987685 0)
(0.0948867 0.00100335 0)
(0.0947664 0.00102054 0)
(0.0946463 0.00103956 0)
(0.0945267 0.00106072 0)
(0.0944074 0.00108436 0)
(0.0942885 0.00111082 0)
(0.09417 0.00114049 0)
(0.0940519 0.00117376 0)
(0.0939343 0.00121106 0)
(0.0938173 0.00125288 0)
(0.093701 0.00129972 0)
(0.0935856 0.00135216 0)
(0.0934714 0.00141083 0)
(0.0933585 0.00147644 0)
(0.0932475 0.00154974 0)
(0.0931388 0.00163158 0)
(0.0930331 0.0017229 0)
(0.0929311 0.00182468 0)
(0.0928339 0.00193796 0)
(0.0927427 0.00206385 0)
(0.0926591 0.00220344 0)
(0.0925847 0.00235782 0)
(0.0925218 0.00252798 0)
(0.092473 0.00271479 0)
(0.0924413 0.00291884 0)
(0.0924301 0.00314043 0)
(0.0924433 0.00337932 0)
(0.0924852 0.0036347 0)
(0.0925604 0.00390494 0)
(0.0926739 0.00418743 0)
(0.0928306 0.00447848 0)
(0.0930351 0.00477311 0)
(0.0932917 0.00506502 0)
(0.0936035 0.00534659 0)
(0.0939724 0.00560903 0)
(0.0943983 0.00584273 0)
(0.094879 0.00603769 0)
(0.0954096 0.00618427 0)
(0.0959827 0.00627398 0)
(0.100001 6.10688e-05 0)
(0.0999986 0.000221029 0)
(0.0999751 0.000419948 0)
(0.0999156 0.000582456 0)
(0.0998178 0.000668971 0)
(0.0996906 0.000687914 0)
(0.099547 0.000670527 0)
(0.0993984 0.000645005 0)
(0.0992518 0.000626466 0)
(0.09911 0.000618911 0)
(0.0989733 0.000620707 0)
(0.0988412 0.000628764 0)
(0.0987123 0.000640486 0)
(0.0985859 0.000654224 0)
(0.0984611 0.000669092 0)
(0.0983375 0.00068467 0)
(0.0982147 0.000700777 0)
(0.0980923 0.000717328 0)
(0.0979704 0.00073427 0)
(0.0978487 0.000751556 0)
(0.0977272 0.000769126 0)
(0.0976059 0.000786911 0)
(0.0974848 0.000804826 0)
(0.0973638 0.00082278 0)
(0.0972429 0.000840674 0)
(0.0971221 0.000858412 0)
(0.0970015 0.000875902 0)
(0.096881 0.000893064 0)
(0.0967607 0.000909833 0)
(0.0966405 0.000926163 0)
(0.0965204 0.000942033 0)
(0.0964005 0.000957445 0)
(0.0962807 0.000972429 0)
(0.0961611 0.000987044 0)
(0.0960417 0.00100138 0)
(0.0959225 0.00101554 0)
(0.0958035 0.00102968 0)
(0.0956847 0.00104395 0)
(0.0955662 0.00105856 0)
(0.0954479 0.0010737 0)
(0.09533 0.00108962 0)
(0.0952123 0.00110656 0)
(0.0950951 0.0011248 0)
(0.0949782 0.0011446 0)
(0.0948618 0.00116626 0)
(0.0947459 0.0011901 0)
(0.0946305 0.00121643 0)
(0.0945159 0.00124558 0)
(0.094402 0.00127791 0)
(0.094289 0.00131378 0)
(0.0941771 0.00135359 0)
(0.0940664 0.00139775 0)
(0.0939573 0.00144671 0)
(0.0938499 0.00150097 0)
(0.0937448 0.00156104 0)
(0.0936423 0.00162748 0)
(0.093543 0.0017009 0)
(0.0934476 0.00178194 0)
(0.0933568 0.00187127 0)
(0.0932715 0.00196955 0)
(0.093193 0.00207749 0)
(0.0931226 0.00219571 0)
(0.0930617 0.00232481 0)
(0.0930122 0.00246528 0)
(0.0929762 0.00261743 0)
(0.092956 0.00278136 0)
(0.0929541 0.00295688 0)
(0.0929735 0.00314343 0)
(0.0930173 0.00333995 0)
(0.0930885 0.00354486 0)
(0.0931906 0.00375589 0)
(0.0933267 0.00397008 0)
(0.0934999 0.00418367 0)
(0.0937127 0.00439211 0)
(0.0939671 0.00459009 0)
(0.0942643 0.00477169 0)
(0.0946041 0.00493051 0)
(0.0949855 0.00505997 0)
(0.0954058 0.00515369 0)
(0.0958608 0.00520585 0)
(0.0963449 0.00521159 0)
(0.100001 6.0897e-05 0)
(0.0999999 0.000226053 0)
(0.0999812 0.00043728 0)
(0.0999303 0.000616691 0)
(0.0998433 0.000719781 0)
(0.0997269 0.000751083 0)
(0.0995929 0.000740706 0)
(0.099452 0.000717863 0)
(0.0993114 0.00069944 0)
(0.0991745 0.000690967 0)
(0.0990421 0.00069176 0)
(0.0989139 0.000699168 0)
(0.098789 0.00071071 0)
(0.0986666 0.000724701 0)
(0.098546 0.000740173 0)
(0.0984267 0.000756621 0)
(0.0983083 0.000773797 0)
(0.0981905 0.000791567 0)
(0.0980732 0.000809846 0)
(0.0979563 0.000828561 0)
(0.0978396 0.000847637 0)
(0.0977231 0.000866993 0)
(0.0976068 0.00088654 0)
(0.0974907 0.000906181 0)
(0.0973747 0.000925818 0)
(0.0972588 0.000945354 0)
(0.097143 0.000964699 0)
(0.0970273 0.000983774 0)
(0.0969117 0.00100252 0)
(0.0967962 0.00102088 0)
(0.0966807 0.00103885 0)
(0.0965653 0.00105642 0)
(0.09645 0.00107362 0)
(0.0963347 0.00109052 0)
(0.0962196 0.00110718 0)
(0.0961045 0.00112374 0)
(0.0959896 0.00114031 0)
(0.0958748 0.00115706 0)
(0.0957603 0.00117418 0)
(0.0956459 0.00119188 0)
(0.0955319 0.00121038 0)
(0.0954183 0.00122991 0)
(0.095305 0.00125074 0)
(0.0951923 0.00127314 0)
(0.0950802 0.00129737 0)
(0.0949688 0.00132373 0)
(0.0948583 0.0013525 0)
(0.0947488 0.00138399 0)
(0.0946405 0.00141851 0)
(0.0945336 0.00145637 0)
(0.0944284 0.00149791 0)
(0.0943252 0.00154347 0)
(0.0942243 0.00159341 0)
(0.0941261 0.0016481 0)
(0.0940311 0.00170793 0)
(0.0939399 0.00177331 0)
(0.0938531 0.00184465 0)
(0.0937714 0.00192236 0)
(0.0936959 0.00200683 0)
(0.0936273 0.00209845 0)
(0.093567 0.00219751 0)
(0.0935161 0.00230427 0)
(0.0934763 0.00241886 0)
(0.0934491 0.00254124 0)
(0.0934363 0.00267122 0)
(0.0934399 0.00280833 0)
(0.093462 0.00295182 0)
(0.0935049 0.0031006 0)
(0.0935706 0.00325318 0)
(0.0936616 0.00340762 0)
(0.0937798 0.00356151 0)
(0.0939273 0.00371194 0)
(0.0941057 0.00385554 0)
(0.0943161 0.00398846 0)
(0.0945591 0.00410651 0)
(0.0948348 0.00420526 0)
(0.0951423 0.00428021 0)
(0.0954799 0.00432697 0)
(0.0958452 0.00434151 0)
(0.0962348 0.00432035 0)
(0.0966445 0.00426076 0)
(0.100001 6.05661e-05 0)
(0.1 0.000230233 0)
(0.099985 0.000452998 0)
(0.0999409 0.000648961 0)
(0.099863 0.000768932 0)
(0.0997568 0.000813436 0)
(0.0996324 0.000811112 0)
(0.0994998 0.000791888 0)
(0.0993661 0.000774259 0)
(0.0992349 0.000765269 0)
(0.0991074 0.00076524 0)