/*--------------------------------*- C++ -*----------------------------------*\
| =========                 |                                                 |
| \\      /  F ield         | OpenFOAM: The Open Source CFD Toolbox           |
|  \\    /   O peration     | Version:  4.1                                   |
|   \\  /    A nd           | Web:      www.OpenFOAM.org                      |
|    \\/     M anipulation  |                                                 |
\*---------------------------------------------------------------------------*/
FoamFile
{
    version     2.0;
    format      ascii;
    class       surfaceScalarField;
    location    "0.8";
    object      phi;
}
// * * * * * * * * * * * * * * * * * * * * * * * * * * * * * * * * * * * * * //

dimensions      [1 0 -1 0 0 0 0];

internalField   nonuniform List<scalar> 
23692
(
2.32716e-06
-1.70773e-10
2.32729e-06
-1.28527e-10
2.32713e-06
1.66996e-10
2.32643e-06
6.9416e-10
2.32509e-06
1.34867e-09
2.32311e-06
1.9887e-09
2.32062e-06
2.4913e-09
2.31784e-06
2.79337e-09
2.31495e-06
2.89817e-09
2.31211e-06
2.85445e-09
2.30939e-06
2.72603e-09
2.30684e-06
2.56861e-09
2.30444e-06
2.41856e-09
2.30217e-06
2.29269e-09
2.3e-06
2.19392e-09
2.2979e-06
2.11728e-09
2.29587e-06
2.05554e-09
2.2939e-06
2.00177e-09
2.29199e-06
1.95084e-09
2.29012e-06
1.89933e-09
2.28832e-06
1.84554e-09
2.28657e-06
1.78856e-09
2.28489e-06
1.7282e-09
2.28328e-06
1.66457e-09
2.28174e-06
1.59782e-09
2.28027e-06
1.52823e-09
2.27887e-06
1.45601e-09
2.27756e-06
1.38139e-09
2.27633e-06
1.30461e-09
2.27518e-06
1.22588e-09
2.27411e-06
1.14548e-09
2.27313e-06
1.06368e-09
2.27224e-06
9.80995e-10
2.27143e-06
8.97817e-10
2.27071e-06
8.14726e-10
2.27008e-06
7.32434e-10
2.26953e-06
6.51686e-10
2.26906e-06
5.73343e-10
2.26868e-06
4.98413e-10
2.26836e-06
4.27929e-10
2.26812e-06
3.63051e-10
2.26794e-06
3.05025e-10
2.26781e-06
2.55158e-10
2.26772e-06
2.14915e-10
2.26766e-06
1.85784e-10
2.26763e-06
1.69399e-10
2.2676e-06
1.67457e-10
2.26755e-06
1.81822e-10
2.26748e-06
2.14505e-10
2.26736e-06
2.67716e-10
2.26716e-06
3.43847e-10
2.26686e-06
4.45595e-10
2.26644e-06
5.75983e-10
2.26585e-06
7.38478e-10
2.26506e-06
9.37015e-10
2.26404e-06
1.17621e-09
2.26274e-06
1.46147e-09
2.26109e-06
1.79924e-09
2.25905e-06
2.19719e-09
2.25655e-06
2.66464e-09
2.25349e-06
3.21295e-09
2.24979e-06
3.85618e-09
2.24534e-06
4.61178e-09
2.24e-06
5.50184e-09
2.2336e-06
6.55447e-09
2.22595e-06
7.80599e-09
2.21681e-06
9.30399e-09
2.20586e-06
1.11117e-08
2.1927e-06
1.33147e-08
2.17683e-06
1.60305e-08
2.15756e-06
1.94239e-08
2.13398e-06
2.37303e-08
2.10485e-06
2.92933e-08
2.06838e-06
3.66242e-08
2.02203e-06
4.64995e-08
1.96206e-06
6.01191e-08
1.88286e-06
7.93557e-08
1.77583e-06
1.07175e-07
1.62737e-06
1.48613e-07
1.41434e-06
2.1317e-07
3.26158e-07
1.08833e-06
2.49017e-06
-3.55485e-10
2.49031e-06
-2.72986e-10
2.49015e-06
3.34246e-10
2.48943e-06
1.42198e-09
2.488e-06
2.7747e-09
2.4859e-06
4.09953e-09
2.48326e-06
5.14194e-09
2.48029e-06
5.77047e-09
2.47721e-06
5.99118e-09
2.47417e-06
5.90404e-09
2.47127e-06
5.64104e-09
2.46854e-06
5.3171e-09
2.46597e-06
5.00764e-09
2.46353e-06
4.74767e-09
2.46121e-06
4.54322e-09
2.45897e-06
4.38458e-09
2.45679e-06
4.25659e-09
2.45468e-06
4.1452e-09
2.45263e-06
4.0397e-09
2.45064e-06
3.93333e-09
2.4487e-06
3.8222e-09
2.44683e-06
3.70466e-09
2.44503e-06
3.58025e-09
2.4433e-06
3.44912e-09
2.44165e-06
3.3117e-09
2.44007e-06
3.16845e-09
2.43857e-06
3.01988e-09
2.43716e-06
2.86646e-09
2.43583e-06
2.70861e-09
2.43459e-06
2.54679e-09
2.43344e-06
2.38162e-09
2.43238e-06
2.21373e-09
2.43141e-06
2.04395e-09
2.43053e-06
1.87332e-09
2.42975e-06
1.70299e-09
2.42905e-06
1.53433e-09
2.42844e-06
1.36895e-09
2.42792e-06
1.20865e-09
2.42749e-06
1.05539e-09
2.42712e-06
9.11432e-10
2.42684e-06
7.79083e-10
2.42661e-06
6.60938e-10
2.42644e-06
5.59721e-10
2.42631e-06
4.78405e-10
2.42622e-06
4.20061e-10
2.42614e-06
3.88039e-10
2.42607e-06
3.85869e-10
2.42598e-06
4.1738e-10
2.42586e-06
4.86646e-10
2.42569e-06
5.98194e-10
2.42543e-06
7.57003e-10
2.42507e-06
9.68577e-10
2.42456e-06
1.23906e-09
2.42389e-06
1.57552e-09
2.423e-06
1.98601e-09
2.42186e-06
2.47993e-09
2.42042e-06
3.06826e-09
2.41862e-06
3.76402e-09
2.41641e-06
4.58278e-09
2.4137e-06
5.5433e-09
2.41041e-06
6.66844e-09
2.40645e-06
7.98631e-09
2.4017e-06
9.53183e-09
2.39602e-06
1.13488e-08
2.38925e-06
1.34927e-08
2.3812e-06
1.6035e-08
2.3716e-06
1.90681e-08
2.36017e-06
2.27141e-08
2.34652e-06
2.71361e-08
2.33016e-06
3.25549e-08
2.31048e-06
3.92749e-08
2.28665e-06
4.77217e-08
2.25761e-06
5.84985e-08
2.22193e-06
7.24713e-08
2.1777e-06
9.08918e-08
2.12242e-06
1.15566e-07
2.0529e-06
1.49038e-07
1.96551e-06
1.94718e-07
1.85744e-06
2.56842e-07
1.73202e-06
3.38753e-07
4.30154e-07
1.62818e-06
2.6646e-06
-5.55159e-10
2.66476e-06
-4.38656e-10
2.66461e-06
4.9274e-10
2.66386e-06
2.16945e-09
2.66238e-06
4.26108e-09
2.66017e-06
6.31529e-09
2.65738e-06
7.93761e-09
2.65424e-06
8.92251e-09
2.65097e-06
9.27661e-09
2.64773e-06
9.15272e-09
2.64464e-06
8.75371e-09
2.64171e-06
8.2573e-09
2.63896e-06
7.78037e-09
2.63635e-06
7.37828e-09
2.63386e-06
7.06091e-09
2.63146e-06
6.81385e-09
2.62913e-06
6.61431e-09
2.62687e-06
6.44063e-09
2.62467e-06
6.27649e-09
2.62254e-06
6.11129e-09
2.62047e-06
5.93916e-09
2.61846e-06
5.75752e-09
2.61653e-06
5.56548e-09
2.61468e-06
5.36329e-09
2.6129e-06
5.15161e-09
2.61121e-06
4.93122e-09
2.60959e-06
4.70281e-09
2.60807e-06
4.46706e-09
2.60664e-06
4.22467e-09
2.60529e-06
3.97643e-09
2.60404e-06
3.72313e-09
2.60288e-06
3.46588e-09
2.60182e-06
3.20598e-09
2.60086e-06
2.94494e-09
2.59998e-06
2.68455e-09
2.59921e-06
2.42704e-09
2.59852e-06
2.17478e-09
2.59792e-06
1.93062e-09
2.5974e-06
1.69758e-09
2.59697e-06
1.47906e-09
2.5966e-06
1.27872e-09
2.5963e-06
1.10052e-09
2.59606e-06
9.48682e-10
2.59585e-06
8.27677e-10
2.59568e-06
7.42333e-10
2.59553e-06
6.97734e-10
2.59537e-06
6.99368e-10
2.59519e-06
7.53047e-10
2.59498e-06
8.65095e-10
2.5947e-06
1.04241e-09
2.59433e-06
1.29254e-09
2.59384e-06
1.62386e-09
2.59321e-06
2.04585e-09
2.59239e-06
2.56914e-09
2.59134e-06
3.20602e-09
2.59003e-06
3.97062e-09
2.58839e-06
4.8795e-09
2.58638e-06
5.95225e-09
2.58393e-06
7.2121e-09
2.58097e-06
8.68702e-09
2.57741e-06
1.04109e-08
2.57315e-06
1.24252e-08
2.56808e-06
1.4781e-08
2.56207e-06
1.75419e-08
2.55496e-06
2.07882e-08
2.54656e-06
2.46213e-08
2.53663e-06
2.91717e-08
2.52492e-06
3.46089e-08
2.51108e-06
4.11549e-08
2.49471e-06
4.91044e-08
2.47531e-06
5.88523e-08
2.45228e-06
7.09325e-08
2.42489e-06
8.60704e-08
2.39228e-06
1.05251e-07
2.35355e-06
1.29799e-07
2.30785e-06
1.61441e-07
2.25479e-06
2.0227e-07
2.19526e-06
2.54421e-07
2.13324e-06
3.19035e-07
2.0792e-06
3.9296e-07
4.595e-07
2.05002e-06
2.85124e-06
-7.7226e-10
2.85144e-06
-6.3178e-10
2.8513e-06
6.30189e-10
2.85056e-06
2.91766e-09
2.84904e-06
5.78352e-09
2.84675e-06
8.61033e-09
2.84384e-06
1.08558e-08
2.84054e-06
1.22335e-08
2.83708e-06
1.27471e-08
2.83365e-06
1.26012e-08
2.83035e-06
1.20711e-08
2.82722e-06
1.14003e-08
2.82427e-06
1.07502e-08
2.82148e-06
1.01982e-08
2.81881e-06
9.75993e-09
2.81623e-06
9.41713e-09
2.81374e-06
9.13942e-09
2.81132e-06
8.89781e-09
2.80897e-06
8.67001e-09
2.80669e-06
8.44156e-09
2.80447e-06
8.20445e-09
2.80233e-06
7.95487e-09
2.80026e-06
7.69173e-09
2.79827e-06
7.41523e-09
2.79636e-06
7.12616e-09
2.79454e-06
6.82551e-09
2.7928e-06
6.5143e-09
2.79116e-06
6.19347e-09
2.78961e-06
5.86396e-09
2.78815e-06
5.52678e-09
2.78679e-06
5.18316e-09
2.78552e-06
4.83456e-09
2.78435e-06
4.48271e-09
2.78328e-06
4.12978e-09
2.7823e-06
3.77831e-09
2.78142e-06
3.43113e-09
2.78063e-06
3.09164e-09
2.77993e-06
2.76368e-09
2.77931e-06
2.45145e-09
2.77877e-06
2.15955e-09
2.7783e-06
1.89295e-09
2.77789e-06
1.65703e-09
2.77754e-06
1.45762e-09
2.77722e-06
1.30081e-09
2.77693e-06
1.19312e-09
2.77665e-06
1.1415e-09
2.77636e-06
1.15334e-09
2.77605e-06
1.23656e-09
2.77569e-06
1.39975e-09
2.77526e-06
1.65217e-09
2.77472e-06
2.00404e-09
2.77406e-06
2.4667e-09
2.77324e-06
3.05269e-09
2.77221e-06
3.77635e-09
2.77095e-06
4.65396e-09
2.76941e-06
5.70433e-09
2.76753e-06
6.94931e-09
2.76526e-06
8.4146e-09
2.76253e-06
1.01306e-08
2.75928e-06
1.21337e-08
2.75541e-06
1.44676e-08
2.75085e-06
1.71852e-08
2.74547e-06
2.03514e-08
2.73916e-06
2.40462e-08
2.73178e-06
2.83685e-08
2.72315e-06
3.34427e-08
2.71309e-06
3.94252e-08
2.70138e-06
4.6515e-08
2.68776e-06
5.49668e-08
2.67195e-06
6.51084e-08
2.65363e-06
7.73636e-08
2.63247e-06
9.22801e-08
2.60817e-06
1.10562e-07
2.58051e-06
1.33098e-07
2.54952e-06
1.60978e-07
2.51571e-06
1.95437e-07
2.48051e-06
2.37662e-07
2.44684e-06
2.88274e-07
2.41986e-06
3.46193e-07
2.40666e-06
4.0634e-07
4.55896e-07
2.41044e-06
3.05096e-06
-1.00895e-09
3.05119e-06
-8.59304e-10
3.05109e-06
7.31349e-10
3.05037e-06
3.64212e-09
3.04885e-06
7.31059e-09
3.04652e-06
1.09504e-08
3.04352e-06
1.3865e-08
3.04008e-06
1.56799e-08
3.03645e-06
1.6389e-08
3.03282e-06
1.62456e-08
3.02931e-06
1.55978e-08
3.02598e-06
1.47562e-08
3.02282e-06
1.39298e-08
3.01983e-06
1.3221e-08
3.01696e-06
1.26534e-08
3.0142e-06
1.22061e-08
3.01154e-06
1.18423e-08
3.00895e-06
1.15255e-08
3.00644e-06
1.12279e-08
3.00399e-06
1.0931e-08
3.00163e-06
1.06243e-08
2.99934e-06
1.03029e-08
2.99713e-06
9.96513e-09
2.995e-06
9.61107e-09
2.99295e-06
9.24175e-09
2.991e-06
8.85831e-09
2.98913e-06
8.46198e-09
2.98736e-06
8.05402e-09
2.98568e-06
7.63562e-09
2.9841e-06
7.20815e-09
2.98261e-06
6.7731e-09
2.98122e-06
6.33239e-09
2.97993e-06
5.88837e-09
2.97874e-06
5.44369e-09
2.97764e-06
5.00162e-09
2.97663e-06
4.56589e-09
2.97572e-06
4.14086e-09
2.97489e-06
3.73134e-09
2.97415e-06
3.34273e-09
2.97348e-06
2.98085e-09
2.97287e-06
2.65211e-09
2.97233e-06
2.36338e-09
2.97182e-06
2.12197e-09
2.97136e-06
1.93564e-09
2.97091e-06
1.81272e-09
2.97046e-06
1.76197e-09
2.97e-06
1.79276e-09
2.96951e-06
1.91508e-09
2.96895e-06
2.13971e-09
2.96832e-06
2.47833e-09
2.96757e-06
2.94375e-09
2.96668e-06
3.55e-09
2.96561e-06
4.31284e-09
2.96434e-06
5.24993e-09
2.96281e-06
6.38128e-09
2.96099e-06
7.72996e-09
2.95881e-06
9.3226e-09
2.95624e-06
1.11902e-08
2.95321e-06
1.33693e-08
2.94965e-06
1.59032e-08
2.94548e-06
1.88433e-08
2.94062e-06
2.22514e-08
2.93498e-06
2.62023e-08
2.92844e-06
3.07866e-08
2.92091e-06
3.6115e-08
2.91223e-06
4.23235e-08
2.90229e-06
4.95796e-08
2.89092e-06
5.80906e-08
2.87798e-06
6.81136e-08
2.86333e-06
7.99671e-08
2.84685e-06
9.40442e-08
2.82851e-06
1.10825e-07
2.80839e-06
1.30885e-07
2.7868e-06
1.54889e-07
2.76443e-06
1.83549e-07
2.74254e-06
2.17523e-07
2.72323e-06
2.57172e-07
2.7096e-06
3.02106e-07
2.70557e-06
3.5041e-07
2.71459e-06
3.97514e-07
4.35157e-07
2.73552e-06
3.26467e-06
-1.26778e-09
3.26494e-06
-1.12964e-09
3.2649e-06
7.78633e-10
3.26423e-06
4.31433e-09
3.26274e-06
8.80414e-09
3.26041e-06
1.32933e-08
3.25736e-06
1.69257e-08
3.25382e-06
1.923e-08
3.25004e-06
2.0182e-08
3.24623e-06
2.00778e-08
3.24251e-06
1.93351e-08
3.23895e-06
1.83331e-08
3.23557e-06
1.73309e-08
3.23236e-06
1.64596e-08
3.22929e-06
1.57536e-08
3.22634e-06
1.51919e-08
3.22349e-06
1.4732e-08
3.22073e-06
1.43315e-08
3.21805e-06
1.39566e-08
3.21544e-06
1.35849e-08
3.21292e-06
1.32035e-08
3.21048e-06
1.28058e-08
3.20812e-06
1.23897e-08
3.20585e-06
1.1955e-08
3.20367e-06
1.15028e-08
3.20157e-06
1.10344e-08
3.19957e-06
1.05513e-08
3.19766e-06
1.00549e-08
3.19585e-06
9.54678e-09
3.19414e-06
9.02859e-09
3.19252e-06
8.50225e-09
3.191e-06
7.97013e-09
3.18957e-06
7.43505e-09
3.18824e-06
6.90042e-09
3.18701e-06
6.3702e-09
3.18587e-06
5.84903e-09
3.18481e-06
5.34212e-09
3.18383e-06
4.85545e-09
3.18294e-06
4.39558e-09
3.18211e-06
3.96965e-09
3.18134e-06
3.58541e-09
3.18062e-06
3.25117e-09
3.17994e-06
2.97581e-09
3.17929e-06
2.76881e-09
3.17865e-06
2.64015e-09
3.178e-06
2.60044e-09
3.17732e-06
2.66096e-09
3.1766e-06
2.83372e-09
3.1758e-06
3.13163e-09
3.17491e-06
3.56865e-09
3.1739e-06
4.15995e-09
3.17273e-06
4.92219e-09
3.17138e-06
5.87385e-09
3.16981e-06
7.03559e-09
3.16797e-06
8.43074e-09
3.16583e-06
1.00859e-08
3.16334e-06
1.20314e-08
3.16045e-06
1.43026e-08
3.1571e-06
1.69405e-08
3.15323e-06
1.9993e-08
3.14877e-06
2.35168e-08
3.14367e-06
2.75787e-08
3.13784e-06
3.22582e-08
3.1312e-06
3.765e-08
3.12367e-06
4.38674e-08
3.11517e-06
5.10462e-08
3.10562e-06
5.93487e-08
3.09496e-06
6.89695e-08
3.08316e-06
8.014e-08
3.07021e-06
9.31337e-08
3.0562e-06
1.08269e-07
3.04134e-06
1.25909e-07
3.02599e-06
1.46448e-07
3.01081e-06
1.70288e-07
2.9968e-06
1.97776e-07
2.98544e-06
2.29093e-07
2.97876e-06
2.64066e-07
2.97921e-06
3.01864e-07
2.98924e-06
3.40592e-07
3.01008e-06
3.7688e-07
4.05816e-07
3.03962e-06
3.49335e-06
-1.55147e-09
3.49368e-06
-1.45151e-09
3.49371e-06
7.52908e-10
3.49312e-06
4.90264e-09
3.49171e-06
1.02217e-08
3.48942e-06
1.55907e-08
3.48637e-06
1.99909e-08
3.48277e-06
2.28448e-08
3.47886e-06
2.40993e-08
3.47487e-06
2.40832e-08
3.47095e-06
2.32797e-08
3.46717e-06
2.21354e-08
3.46356e-06
2.09627e-08
3.46013e-06
1.9925e-08
3.45684e-06
1.90714e-08
3.45369e-06
1.83839e-08
3.45065e-06
1.78168e-08
3.4477e-06
1.73221e-08
3.44485e-06
1.6861e-08
3.44208e-06
1.64072e-08
3.4394e-06
1.59449e-08
3.4368e-06
1.54661e-08
3.4343e-06
1.49677e-08
3.43188e-06
1.44493e-08
3.42955e-06
1.39119e-08
3.42732e-06
1.33568e-08
3.42518e-06
1.27857e-08
3.42313e-06
1.22004e-08
3.42118e-06
1.16026e-08
3.41933e-06
1.09943e-08
3.41757e-06
1.0378e-08
3.41591e-06
9.75654e-09
3.41434e-06
9.13323e-09
3.41287e-06
8.51214e-09
3.41148e-06
7.89806e-09
3.41018e-06
7.29645e-09
3.40897e-06
6.7136e-09
3.40783e-06
6.15647e-09
3.40675e-06
5.63283e-09
3.40574e-06
5.15108e-09
3.40479e-06
4.72033e-09
3.40387e-06
4.35034e-09
3.40298e-06
4.05152e-09
3.40211e-06
3.83489e-09
3.40123e-06
3.71213e-09
3.40033e-06
3.69558e-09
3.3994e-06
3.79827e-09
3.39841e-06
4.03413e-09
3.39733e-06
4.41803e-09
3.39615e-06
4.96593e-09
3.39484e-06
5.69512e-09
3.39335e-06
6.62448e-09
3.39168e-06
7.77478e-09
3.38977e-06
9.1691e-09
3.3876e-06
1.08333e-08
3.38512e-06
1.27964e-08
3.38229e-06
1.50915e-08
3.37907e-06
1.77564e-08
3.37541e-06
2.08346e-08
3.37126e-06
2.43762e-08
3.36657e-06
2.84393e-08
3.3613e-06
3.30915e-08
3.35538e-06
3.84115e-08
3.34878e-06
4.44907e-08
3.34145e-06
5.1436e-08
3.33336e-06
5.93709e-08
3.32451e-06
6.84386e-08
3.31492e-06
7.88029e-08
3.30464e-06
9.06494e-08
3.29383e-06
1.04184e-07
3.2827e-06
1.19629e-07
3.27163e-06
1.37213e-07
3.26116e-06
1.57151e-07
3.25207e-06
1.79611e-07
3.24542e-06
2.0466e-07
3.24256e-06
2.32178e-07
3.24512e-06
2.61737e-07
3.25476e-06
2.92446e-07
3.2728e-06
3.22778e-07
3.2994e-06
3.50494e-07
3.728e-07
3.33264e-06
3.73805e-06
-1.86257e-09
3.73844e-06
-1.83324e-09
3.73856e-06
6.35503e-10
3.73809e-06
5.3754e-09
3.7368e-06
1.15194e-08
3.73461e-06
1.77914e-08
3.7316e-06
2.30094e-08
3.72798e-06
2.64803e-08
3.72399e-06
2.81077e-08
3.71985e-06
2.82416e-08
3.71572e-06
2.74225e-08
3.71172e-06
2.6163e-08
3.70788e-06
2.48304e-08
3.70421e-06
2.3625e-08
3.7007e-06
2.26153e-08
3.69734e-06
2.179e-08
3.6941e-06
2.11028e-08
3.69096e-06
2.05021e-08
3.68793e-06
1.99445e-08
3.685e-06
1.94e-08
3.68216e-06
1.885e-08
3.67941e-06
1.82847e-08
3.67675e-06
1.77e-08
3.67419e-06
1.70948e-08
3.67172e-06
1.647e-08
3.66934e-06
1.58268e-08
3.66706e-06
1.51673e-08
3.66488e-06
1.44932e-08
3.66278e-06
1.38068e-08
3.66079e-06
1.31103e-08
3.65889e-06
1.24067e-08
3.65708e-06
1.16993e-08
3.65536e-06
1.09921e-08
3.65373e-06
1.02898e-08
3.65218e-06
9.59804e-09
3.65071e-06
8.92311e-09
3.64932e-06
8.2723e-09
3.64799e-06
7.65361e-09
3.64673e-06
7.07593e-09
3.64551e-06
6.54891e-09
3.64434e-06
6.08295e-09
3.64319e-06
5.68919e-09
3.64206e-06
5.37944e-09
3.64094e-06
5.16622e-09
3.6398e-06
5.06269e-09
3.63862e-06
5.08278e-09
3.6374e-06
5.24114e-09
3.6361e-06
5.55335e-09
3.63471e-06
6.03589e-09
3.6332e-06
6.70645e-09
3.63154e-06
7.58399e-09
3.62972e-06
8.68909e-09
3.62768e-06
1.00442e-08
3.62542e-06
1.16739e-08
3.62289e-06
1.36055e-08
3.62007e-06
1.58696e-08
3.61691e-06
1.85001e-08
3.61338e-06
2.15355e-08
3.60944e-06
2.50193e-08
3.60507e-06
2.90008e-08
3.60023e-06
3.35359e-08
3.59488e-06
3.86883e-08
3.58902e-06
4.45301e-08
3.58262e-06
5.11429e-08
3.57569e-06
5.86185e-08
3.56826e-06
6.70595e-08
3.56037e-06
7.65788e-08
3.55213e-06
8.72987e-08
3.54368e-06
9.93485e-08
3.53526e-06
1.12859e-07
3.52718e-06
1.27956e-07
3.5199e-06
1.44745e-07
3.51401e-06
1.63292e-07
3.51027e-06
1.83598e-07
3.50962e-06
2.05554e-07
3.51315e-06
2.28896e-07
3.52199e-06
2.53137e-07
3.53717e-06
2.77505e-07
3.55929e-06
3.00899e-07
3.5881e-06
3.21917e-07
3.39005e-07
3.62213e-06
3.99989e-06
-2.20295e-09
4.00034e-06
-2.28193e-09
4.00057e-06
4.10045e-10
4.00025e-06
5.70393e-09
3.99912e-06
1.26563e-08
3.99707e-06
1.98463e-08
3.99417e-06
2.59297e-08
3.99057e-06
3.00889e-08
3.98653e-06
3.21694e-08
3.98226e-06
3.25264e-08
3.97796e-06
3.17483e-08
3.97374e-06
3.04095e-08
3.96966e-06
2.89338e-08
3.96576e-06
2.75629e-08
3.96202e-06
2.63899e-08
3.95844e-06
2.54148e-08
3.955e-06
2.45941e-08
3.95168e-06
2.38744e-08
3.94847e-06
2.3209e-08
3.94537e-06
2.25644e-08
3.94237e-06
2.19193e-08
3.93946e-06
2.12618e-08
3.93666e-06
2.05865e-08
3.93395e-06
1.98916e-08
3.93133e-06
1.91775e-08
3.92882e-06
1.84456e-08
3.92639e-06
1.76978e-08
3.92406e-06
1.69361e-08
3.92183e-06
1.6163e-08
3.91968e-06
1.53813e-08
3.91763e-06
1.45944e-08
3.91567e-06
1.3806e-08
3.91379e-06
1.30208e-08
3.91199e-06
1.22444e-08
3.91027e-06
1.14829e-08
3.90862e-06
1.07437e-08
3.90703e-06
1.00349e-08
3.9055e-06
9.36565e-09
3.90402e-06
8.74576e-09
3.90258e-06
8.18609e-09
3.90117e-06
7.69821e-09
3.89977e-06
7.29449e-09
3.89837e-06
6.98803e-09
3.89696e-06
6.79262e-09
3.89553e-06
6.72278e-09
3.89404e-06
6.79372e-09
3.8925e-06
7.02147e-09
3.89086e-06
7.42285e-09
3.88913e-06
8.01566e-09
3.88726e-06
8.81874e-09
3.88524e-06
9.85221e-09
3.88304e-06
1.11376e-08
3.88064e-06
1.26983e-08
3.87802e-06
1.45594e-08
3.87513e-06
1.67485e-08
3.87197e-06
1.9296e-08
3.8685e-06
2.22352e-08
3.8647e-06
2.56031e-08
3.86055e-06
2.94406e-08
3.85602e-06
3.37929e-08
3.85112e-06
3.87104e-08
3.84583e-06
4.42485e-08
3.84016e-06
5.04679e-08
3.83414e-06
5.74349e-08
3.82781e-06
6.52206e-08
3.82124e-06
7.39003e-08
3.81454e-06
8.35516e-08
3.80786e-06
9.42516e-08
3.80141e-06
1.06073e-07
3.79546e-06
1.19077e-07
3.79038e-06
1.33306e-07
3.78662e-06
1.4877e-07
3.78474e-06
1.65435e-07
3.78541e-06
1.83199e-07
3.78935e-06
2.01871e-07
3.79736e-06
2.21147e-07
3.81017e-06
2.40587e-07
3.82834e-06
2.59594e-07
3.85207e-06
2.77423e-07
3.88102e-06
2.93226e-07
3.0615e-07
3.91412e-06
4.28007e-06
-2.57391e-09
4.28059e-06
-2.80245e-09
4.28094e-06
6.45064e-11
4.28079e-06
5.86622e-09
4.27985e-06
1.35994e-08
4.278e-06
2.17128e-08
4.27523e-06
2.87049e-08
4.27171e-06
3.36251e-08
4.26766e-06
3.62441e-08
4.2633e-06
3.69063e-08
4.25883e-06
3.62349e-08
4.25441e-06
3.4861e-08
4.25011e-06
3.32657e-08
4.24597e-06
3.1736e-08
4.24201e-06
3.03952e-08
4.23821e-06
2.92596e-08
4.23456e-06
2.82922e-08
4.23105e-06
2.74404e-08
4.22766e-06
2.66554e-08
4.22439e-06
2.5901e-08
4.22123e-06
2.51529e-08
4.21818e-06
2.43974e-08
4.21522e-06
2.36273e-08
4.21237e-06
2.28401e-08
4.20961e-06
2.20355e-08
4.20695e-06
2.12147e-08
4.20438e-06
2.03794e-08
4.20191e-06
1.95323e-08
4.19952e-06
1.86757e-08
4.19723e-06
1.78131e-08
4.19502e-06
1.69481e-08
4.19289e-06
1.60853e-08
4.19084e-06
1.52299e-08
4.18886e-06
1.43879e-08
4.18695e-06
1.35667e-08
4.1851e-06
1.27741e-08
4.18331e-06
1.20193e-08
4.18155e-06
1.13122e-08
4.17984e-06
1.06637e-08
4.17815e-06
1.00856e-08
4.17647e-06
9.59065e-09
4.17479e-06
9.19213e-09
4.1731e-06
8.90423e-09
4.17139e-06
8.74182e-09
4.16963e-06
8.7204e-09
4.16781e-06
8.85624e-09
4.16591e-06
9.16626e-09
4.16392e-06
9.66817e-09
4.16181e-06
1.03805e-08
4.15957e-06
1.13228e-08
4.15717e-06
1.25155e-08
4.1546e-06
1.39803e-08
4.15183e-06
1.57405e-08
4.14884e-06
1.78206e-08
4.14562e-06
2.02473e-08
4.14215e-06
2.30491e-08
4.13841e-06
2.62569e-08
4.1344e-06
2.99039e-08
4.1301e-06
3.40261e-08
4.12551e-06
3.86621e-08
4.12066e-06
4.38533e-08
4.11555e-06
4.96436e-08
4.11023e-06
5.6079e-08
4.10475e-06
6.32069e-08
4.09919e-06
7.1075e-08
4.09365e-06
7.97294e-08
4.08828e-06
8.92122e-08
4.08326e-06
9.95582e-08
4.07883e-06
1.1079e-07
4.07528e-06
1.22915e-07
4.07296e-06
1.35912e-07
4.07229e-06
1.4973e-07
4.07373e-06
1.64276e-07
4.07781e-06
1.79402e-07
4.08507e-06
1.94898e-07
4.09601e-06
2.10482e-07
4.11108e-06
2.25798e-07
4.13053e-06
2.40416e-07
4.15438e-06
2.53851e-07
4.18227e-06
2.65601e-07
2.752e-07
4.21349e-06
4.57987e-06
-2.97582e-09
4.58047e-06
-3.39663e-09
4.58095e-06
-4.06733e-10
4.58097e-06
5.8498e-09
4.58025e-06
1.43271e-08
4.57861e-06
2.33607e-08
4.57603e-06
3.12977e-08
4.57263e-06
3.7048e-08
4.5686e-06
4.02922e-08
4.56418e-06
4.13458e-08
4.55959e-06
4.08536e-08
4.55498e-06
3.94963e-08
4.55047e-06
3.78113e-08
4.54611e-06
3.61351e-08
4.54192e-06
3.46258e-08
4.53791e-06
3.33215e-08
4.53406e-06
3.21957e-08
4.53036e-06
3.11994e-08
4.52679e-06
3.02836e-08
4.52336e-06
2.94097e-08
4.52004e-06
2.85513e-08
4.51683e-06
2.76921e-08
4.51372e-06
2.68237e-08
4.51072e-06
2.59421e-08
4.50781e-06
2.50464e-08
4.505e-06
2.41374e-08
4.50229e-06
2.3217e-08
4.49966e-06
2.22875e-08
4.49712e-06
2.13521e-08
4.49467e-06
2.04142e-08
4.49229e-06
1.94781e-08
4.48999e-06
1.85489e-08
4.48776e-06
1.76324e-08
4.48559e-06
1.67354e-08
4.48347e-06
1.58659e-08
4.48141e-06
1.50325e-08
4.47938e-06
1.42451e-08
4.47739e-06
1.35145e-08
4.47541e-06
1.28525e-08
4.47345e-06
1.22715e-08
4.47148e-06
1.17852e-08
4.4695e-06
1.14077e-08
4.4675e-06
1.1154e-08
4.46545e-06
1.10396e-08
4.46334e-06
1.10807e-08
4.46116e-06
1.12942e-08
4.4589e-06
1.16975e-08
4.45653e-06
1.23086e-08
4.45404e-06
1.31462e-08
4.45141e-06
1.42296e-08
4.44863e-06
1.55791e-08
4.44568e-06
1.72156e-08
4.44255e-06
1.91611e-08
4.43922e-06
2.14386e-08
4.4357e-06
2.40721e-08
4.43196e-06
2.7087e-08
4.42801e-06
3.05098e-08
4.42385e-06
3.43683e-08
4.41948e-06
3.86915e-08
4.41494e-06
4.35092e-08
4.41025e-06
4.88517e-08
4.40546e-06
5.47494e-08
4.40061e-06
6.1232e-08
4.3958e-06
6.83269e-08
4.39113e-06
7.60585e-08
4.38672e-06
8.44454e-08
4.38275e-06
9.34986e-08
4.3794e-06
1.03218e-07
4.37691e-06
1.13589e-07
4.37555e-06
1.24577e-07
4.37564e-06
1.36127e-07
4.37752e-06
1.48153e-07
4.38157e-06
1.60537e-07
4.38815e-06
1.73125e-07
4.39762e-06
1.85722e-07
4.41031e-06
1.98095e-07
4.42643e-06
2.09975e-07
4.44607e-06
2.21066e-07
4.46916e-06
2.3106e-07
4.49538e-06
2.39664e-07
2.46628e-07
4.52424e-06
4.90067e-06
-3.40787e-09
4.90134e-06
-4.06281e-09
4.90194e-06
-1.00251e-09
4.90214e-06
5.65332e-09
4.90165e-06
1.48325e-08
4.90025e-06
2.47745e-08
4.89787e-06
3.36836e-08
4.89461e-06
4.03259e-08
4.89065e-06
4.42779e-08
4.88621e-06
4.5809e-08
4.88152e-06
4.55713e-08
4.87676e-06
4.42873e-08
4.87206e-06
4.2549e-08
4.86749e-06
4.0744e-08
4.86309e-06
3.90706e-08
4.85887e-06
3.75932e-08
4.85482e-06
3.63004e-08
4.85093e-06
3.51494e-08
4.84719e-06
3.40929e-08
4.84359e-06
3.30912e-08
4.84011e-06
3.21158e-08
4.83674e-06
3.11485e-08
4.83348e-06
3.01789e-08
4.83033e-06
2.92019e-08
4.82727e-06
2.82156e-08
4.82431e-06
2.72206e-08
4.82144e-06
2.62183e-08
4.81865e-06
2.52113e-08
4.81595e-06
2.42029e-08
4.81332e-06
2.3197e-08
4.81076e-06
2.21983e-08
4.80827e-06
2.12124e-08
4.80584e-06
2.02457e-08
4.80346e-06
1.93057e-08
4.80112e-06
1.84009e-08
4.79882e-06
1.75407e-08
4.79654e-06
1.67355e-08
4.79428e-06
1.59969e-08
4.79202e-06
1.53371e-08
4.78976e-06
1.47694e-08
4.78748e-06
1.43078e-08
4.78518e-06
1.3967e-08
4.78283e-06
1.37623e-08
4.78042e-06
1.37098e-08
4.77795e-06
1.38259e-08
4.77539e-06
1.41274e-08
4.77274e-06
1.46318e-08
4.76998e-06
1.53568e-08
4.76709e-06
1.63204e-08
4.76408e-06
1.75414e-08
4.76092e-06
1.90385e-08
4.75761e-06
2.0831e-08
4.75414e-06
2.29388e-08
4.75051e-06
2.53818e-08
4.74672e-06
2.81805e-08
4.74277e-06
3.13557e-08
4.73868e-06
3.49282e-08
4.73445e-06
3.89189e-08
4.73012e-06
4.33482e-08
4.72572e-06
4.8236e-08
4.7213e-06
5.36006e-08
4.71692e-06
5.94585e-08
4.71266e-06
6.58229e-08
4.70861e-06
7.27028e-08
4.7049e-06
8.01017e-08
4.70166e-06
8.80154e-08
4.69906e-06
9.64302e-08
4.69728e-06
1.05321e-07
4.69655e-06
1.14648e-07
4.6971e-06
1.24355e-07
4.69919e-06
1.34367e-07
4.70308e-06
1.44588e-07
4.70904e-06
1.549e-07
4.71733e-06
1.65161e-07
4.72817e-06
1.75209e-07
4.74172e-06
1.84864e-07
4.75808e-06
1.93933e-07
4.77724e-06
2.02218e-07
4.79908e-06
2.09528e-07
4.82336e-06
2.15694e-07
2.20582e-07
4.84972e-06
5.24394e-06
-3.8684e-09
5.24467e-06
-4.79628e-09
5.24539e-06
-1.71469e-09
5.24576e-06
5.28645e-09
5.24548e-06
1.5123e-08
5.24432e-06
2.5955e-08
5.24216e-06
3.58533e-08
5.23907e-06
4.34386e-08
5.23519e-06
4.8172e-08
5.23077e-06
5.02616e-08
5.22601e-06
5.0353e-08
5.22113e-06
4.92016e-08
5.21627e-06
4.74508e-08
5.21152e-06
4.55408e-08
5.20692e-06
4.37136e-08
5.20251e-06
4.2064e-08
5.19827e-06
4.05995e-08
5.1942e-06
3.92869e-08
5.19028e-06
3.80825e-08
5.18651e-06
3.69466e-08
5.18286e-06
3.58495e-08
5.17933e-06
3.4771e-08
5.17592e-06
3.3699e-08
5.1726e-06
3.26269e-08
5.16939e-06
3.15522e-08
5.16626e-06
3.04746e-08
5.16322e-06
2.93956e-08
5.16026e-06
2.83174e-08
5.15738e-06
2.72437e-08
5.15456e-06
2.61788e-08
5.15181e-06
2.51276e-08
5.1491e-06
2.40963e-08
5.14645e-06
2.30919e-08
5.14383e-06
2.21223e-08
5.14125e-06
2.11965e-08
5.13868e-06
2.03245e-08
5.13613e-06
1.95172e-08
5.13357e-06
1.87864e-08
5.13101e-06
1.8145e-08
5.12842e-06
1.76064e-08
5.12581e-06
1.71849e-08
5.12315e-06
1.68954e-08
5.12043e-06
1.67533e-08
5.11765e-06
1.67744e-08
5.11479e-06
1.69749e-08
5.11184e-06
1.73713e-08
5.10879e-06
1.79803e-08
5.10563e-06
1.88187e-08
5.10236e-06
1.99034e-08
5.09897e-06
2.12512e-08
5.09545e-06
2.28791e-08
5.0918e-06
2.48037e-08
5.08803e-06
2.70415e-08
5.08413e-06
2.96087e-08
5.08013e-06
3.25212e-08
5.07603e-06
3.57941e-08
5.07186e-06
3.94415e-08
5.06765e-06
4.34767e-08
5.06343e-06
4.79112e-08
5.05926e-06
5.27543e-08
5.0552e-06
5.80128e-08
5.05132e-06
6.36899e-08
5.04771e-06
6.97844e-08
5.04447e-06
7.62897e-08
5.04173e-06
8.31926e-08
5.03963e-06
9.04721e-08
5.03831e-06
9.80978e-08
5.03796e-06
1.06029e-07
5.03874e-06
1.14213e-07
5.04087e-06
1.22583e-07
5.04452e-06
1.31063e-07
5.0499e-06
1.39557e-07
5.05718e-06
1.47961e-07
5.06653e-06
1.56157e-07
5.07806e-06
1.64018e-07
5.09186e-06
1.71411e-07
5.10793e-06
1.78204e-07
5.12621e-06
1.84267e-07
5.14659e-06
1.89483e-07
5.16886e-06
1.93757e-07
1.9702e-07
5.19275e-06
5.61124e-06
-4.35477e-09
5.61204e-06
-5.5898e-09
5.61286e-06
-2.53024e-09
5.61339e-06
4.76752e-09
5.6133e-06
1.52183e-08
5.61235e-06
2.69172e-08
5.61041e-06
3.78119e-08
5.60749e-06
4.63784e-08
5.60373e-06
5.19543e-08
5.59934e-06
5.46742e-08
5.59456e-06
5.51646e-08
5.5896e-06
5.4205e-08
5.5846e-06
5.24859e-08
5.57969e-06
5.04999e-08
5.57492e-06
4.85349e-08
5.57032e-06
4.67198e-08
5.5659e-06
4.50843e-08
5.56165e-06
4.36077e-08
5.55756e-06
4.22517e-08
5.55361e-06
4.09784e-08
5.5498e-06
3.97572e-08
5.5461e-06
3.85666e-08
5.54252e-06
3.73929e-08
5.53904e-06
3.62283e-08
5.53565e-06
3.50692e-08
5.53235e-06
3.39145e-08
5.52912e-06
3.27654e-08
5.52597e-06
3.16245e-08
5.52288e-06
3.0495e-08
5.51986e-06
2.93817e-08
5.51688e-06
2.82899e-08
5.51394e-06
2.72262e-08
5.51104e-06
2.61978e-08
5.50816e-06
2.52132e-08
5.5053e-06
2.42817e-08
5.50244e-06
2.34135e-08
5.49958e-06
2.26199e-08
5.49671e-06
2.19129e-08
5.4938e-06
2.13053e-08
5.49087e-06
2.08108e-08
5.48788e-06
2.04433e-08
5.48485e-06
2.02177e-08
5.48174e-06
2.01488e-08
5.47856e-06
2.02519e-08
5.4753e-06
2.05425e-08
5.47195e-06
2.1036e-08
5.4685e-06
2.17479e-08
5.46495e-06
2.26933e-08
5.4613e-06
2.38871e-08
5.45754e-06
2.5344e-08
5.45369e-06
2.70779e-08
5.44973e-06
2.91022e-08
5.4457e-06
3.14294e-08
5.44159e-06
3.40711e-08
5.43743e-06
3.70379e-08
5.43325e-06
4.03386e-08
5.42907e-06
4.39806e-08
5.42495e-06
4.79691e-08
5.42092e-06
5.2307e-08
5.41705e-06
5.69939e-08
5.41341e-06
6.20262e-08
5.41008e-06
6.73959e-08
5.40715e-06
7.30902e-08
5.40472e-06
7.90908e-08
5.40291e-06
8.53729e-08
5.40186e-06
9.19046e-08
5.40168e-06
9.86463e-08
5.40254e-06
1.0555e-07
5.40456e-06
1.12559e-07
5.40791e-06
1.19609e-07
5.41272e-06
1.26624e-07
5.41913e-06
1.33525e-07
5.42723e-06
1.40222e-07
5.43713e-06
1.46625e-07
5.44888e-06
1.52637e-07
5.46249e-06
1.58166e-07
5.47793e-06
1.63123e-07
5.49513e-06
1.67425e-07
5.51397e-06
1.71003e-07
5.53427e-06
1.73804e-07
1.75795e-07
5.55585e-06
6.00427e-06
-4.86401e-09
6.00512e-06
-6.43465e-09
6.00602e-06
-3.43251e-09
6.00668e-06
4.12049e-09
6.00676e-06
1.51464e-08
6.00601e-06
2.76869e-08
6.00426e-06
3.95764e-08
6.00151e-06
4.91489e-08
5.99787e-06
5.56145e-08
5.99355e-06
5.90244e-08
5.98877e-06
5.99763e-08
5.98375e-06
5.92648e-08
5.97866e-06
5.76229e-08
5.97361e-06
5.55941e-08
5.96869e-06
5.35129e-08
5.96392e-06
5.1545e-08
5.95933e-06
4.97449e-08
5.95491e-06
4.81068e-08
5.95064e-06
4.66e-08
5.94652e-06
4.51896e-08
5.94253e-06
4.38453e-08
5.93866e-06
4.25447e-08
5.9349e-06
4.12727e-08
5.93123e-06
4.00203e-08
5.92766e-06
3.87828e-08
5.92416e-06
3.75588e-08
5.92073e-06
3.63488e-08
5.91736e-06
3.51552e-08
5.91405e-06
3.39815e-08
5.91079e-06
3.28323e-08
5.90756e-06
3.17134e-08
5.90436e-06
3.06315e-08
5.90118e-06
2.95941e-08
5.89801e-06
2.86099e-08
5.89484e-06
2.76882e-08
5.89166e-06
2.68397e-08
5.88846e-06
2.60753e-08
5.88523e-06
2.54071e-08
5.88196e-06
2.48477e-08
5.87865e-06
2.44102e-08
5.87527e-06
2.41084e-08
5.87184e-06
2.39561e-08
5.86833e-06
2.39675e-08
5.86474e-06
2.41569e-08
5.86107e-06
2.45383e-08
5.85731e-06
2.51257e-08
5.85347e-06
2.59325e-08
5.84953e-06
2.69719e-08
5.84552e-06
2.82561e-08
5.84142e-06
2.97967e-08
5.83726e-06
3.16044e-08
5.83304e-06
3.36886e-08
5.82878e-06
3.60574e-08
5.82451e-06
3.87174e-08
5.82026e-06
4.16734e-08
5.81605e-06
4.49285e-08
5.81194e-06
4.8483e-08
5.80796e-06
5.23349e-08
5.80418e-06
5.64793e-08
5.80066e-06
6.09077e-08
5.79747e-06
6.5608e-08
5.7947e-06
7.05637e-08
5.79244e-06
7.57539e-08
5.79077e-06
8.11525e-08
5.78982e-06
8.67281e-08
5.78968e-06
9.24436e-08
5.79047e-06
9.82561e-08
5.7923e-06
1.04117e-07
5.79528e-06
1.09972e-07
5.79953e-06
1.15761e-07
5.80513e-06
1.21421e-07
5.81216e-06
1.26886e-07
5.82069e-06
1.32086e-07
5.83075e-06
1.36951e-07
5.84237e-06
1.41415e-07
5.85551e-06
1.45413e-07
5.87013e-06
1.48888e-07
5.88614e-06
1.51788e-07
5.90345e-06
1.54075e-07
5.92191e-06
1.5572e-07
1.5671e-07
5.94137e-06
6.42482e-06
-5.39267e-09
6.42571e-06
-7.32139e-09
6.42669e-06
-4.40408e-09
6.42744e-06
3.37174e-09
6.42766e-06
1.49394e-08
6.42707e-06
2.82963e-08
6.42549e-06
4.11718e-08
6.4229e-06
5.1763e-08
6.41939e-06