/*--------------------------------*- C++ -*----------------------------------*\
| =========                 |                                                 |
| \\      /  F ield         | OpenFOAM: The Open Source CFD Toolbox           |
|  \\    /   O peration     | Version:  4.1                                   |
|   \\  /    A nd           | Web:      www.OpenFOAM.org                      |
|    \\/     M anipulation  |                                                 |
\*---------------------------------------------------------------------------*/
FoamFile
{
    version     2.0;
    format      ascii;
    class       volVectorField;
    location    "0.8";
    object      U;
}
// * * * * * * * * * * * * * * * * * * * * * * * * * * * * * * * * * * * * * //

dimensions      [0 1 -1 0 0 0 0];

internalField   nonuniform List<vector> 
12013
(
(0.100003 -6.8766e-07 0)
(0.100012 -5.24971e-07 0)
(0.100014 7.09588e-07 0)
(0.0999981 2.98832e-06 0)
(0.0999553 5.91558e-06 0)
(0.0998831 8.89416e-06 0)
(0.0997854 1.13633e-05 0)
(0.09967 1.29953e-05 0)
(0.0995464 1.37527e-05 0)
(0.0994222 1.38169e-05 0)
(0.0993025 1.34606e-05 0)
(0.0991895 1.2939e-05 0)
(0.0990836 1.24296e-05 0)
(0.0989838 1.20217e-05 0)
(0.098889 1.17377e-05 0)
(0.0987981 1.15582e-05 0)
(0.0987102 1.14497e-05 0)
(0.098625 1.13772e-05 0)
(0.0985422 1.13133e-05 0)
(0.0984618 1.12387e-05 0)
(0.0983839 1.11423e-05 0)
(0.0983086 1.10177e-05 0)
(0.0982361 1.08619e-05 0)
(0.0981666 1.06742e-05 0)
(0.0981001 1.04539e-05 0)
(0.0980369 1.02011e-05 0)
(0.0979771 9.91564e-06 0)
(0.0979208 9.5976e-06 0)
(0.097868 9.24703e-06 0)
(0.097819 8.86399e-06 0)
(0.0977738 8.44922e-06 0)
(0.0977324 8.00324e-06 0)
(0.0976949 7.52856e-06 0)
(0.0976614 7.02735e-06 0)
(0.0976319 6.50321e-06 0)
(0.0976063 5.96119e-06 0)
(0.0975847 5.40718e-06 0)
(0.0975669 4.8484e-06 0)
(0.0975529 4.29419e-06 0)
(0.0975424 3.75468e-06 0)
(0.0975352 3.24193e-06 0)
(0.0975312 2.76978e-06 0)
(0.0975299 2.35375e-06 0)
(0.097531 2.01191e-06 0)
(0.0975341 1.76402e-06 0)
(0.0975385 1.6325e-06 0)
(0.0975439 1.64228e-06 0)
(0.0975494 1.82142e-06 0)
(0.0975544 2.20192e-06 0)
(0.0975581 2.81979e-06 0)
(0.0975594 3.71558e-06 0)
(0.0975574 4.93607e-06 0)
(0.0975508 6.53517e-06 0)
(0.0975385 8.5754e-06 0)
(0.0975188 1.11292e-05 0)
(0.0974903 1.42823e-05 0)
(0.097451 1.81365e-05 0)
(0.0973988 2.28135e-05 0)
(0.0973313 2.84596e-05 0)
(0.0972458 3.52532e-05 0)
(0.097139 4.34136e-05 0)
(0.0970071 5.32126e-05 0)
(0.0968458 6.49904e-05 0)
(0.0966498 7.91788e-05 0)
(0.0964128 9.63317e-05 0)
(0.096127 0.000117168 0)
(0.095783 0.000142639 0)
(0.0953691 0.000174015 0)
(0.0948702 0.000213031 0)
(0.0942672 0.000262097 0)
(0.0935351 0.000324631 0)
(0.0926403 0.000405585 0)
(0.0915373 0.000512304 0)
(0.0901631 0.000655942 0)
(0.0884276 0.000853865 0)
(0.086201 0.00113376 0)
(0.0832903 0.0015409 0)
(0.0793892 0.00215311 0)
(0.074019 0.00312797 0)
(0.0666093 0.00490667 0)
(0.0582664 0.00947788 0)
(0.100003 -2.12107e-06 0)
(0.100012 -1.63881e-06 0)
(0.100015 2.13576e-06 0)
(0.0999992 9.11868e-06 0)
(0.099957 1.80973e-05 0)
(0.0998856 2.72404e-05 0)
(0.0997885 3.4827e-05 0)
(0.0996737 3.98482e-05 0)
(0.0995505 4.21864e-05 0)
(0.0994265 4.23953e-05 0)
(0.0993069 4.13118e-05 0)
(0.099194 3.97179e-05 0)
(0.099088 3.81585e-05 0)
(0.0989882 3.69087e-05 0)
(0.0988933 3.60365e-05 0)
(0.0988023 3.54857e-05 0)
(0.0987144 3.51516e-05 0)
(0.0986291 3.49287e-05 0)
(0.0985463 3.47323e-05 0)
(0.0984658 3.45043e-05 0)
(0.0983878 3.42095e-05 0)
(0.0983125 3.38289e-05 0)
(0.0982399 3.33536e-05 0)
(0.0981702 3.27804e-05 0)
(0.0981036 3.21081e-05 0)
(0.0980402 3.13366e-05 0)
(0.0979802 3.04658e-05 0)
(0.0979236 2.94959e-05 0)
(0.0978706 2.84269e-05 0)
(0.0978212 2.72587e-05 0)
(0.0977755 2.59938e-05 0)
(0.0977337 2.46346e-05 0)
(0.0976957 2.31876e-05 0)
(0.0976617 2.16606e-05 0)
(0.0976315 2.00646e-05 0)
(0.0976053 1.84141e-05 0)
(0.0975829 1.67279e-05 0)
(0.0975643 1.50285e-05 0)
(0.0975493 1.33436e-05 0)
(0.0975378 1.17052e-05 0)
(0.0975296 1.01497e-05 0)
(0.0975244 8.71971e-06 0)
(0.0975219 7.46306e-06 0)
(0.0975217 6.43501e-06 0)
(0.0975233 5.69581e-06 0)
(0.0975263 5.31444e-06 0)
(0.0975301 5.36712e-06 0)
(0.0975341 5.94045e-06 0)
(0.0975374 7.13093e-06 0)
(0.0975393 9.04896e-06 0)
(0.0975388 1.18196e-05 0)
(0.0975349 1.55858e-05 0)
(0.0975265 2.0511e-05 0)
(0.0975122 2.6786e-05 0)
(0.0974907 3.46325e-05 0)
(0.0974603 4.43115e-05 0)
(0.0974192 5.61324e-05 0)
(0.0973653 7.04645e-05 0)
(0.0972963 8.77529e-05 0)
(0.0972095 0.000108538 0)
(0.0971017 0.000133482 0)
(0.0969694 0.000163405 0)
(0.0968082 0.000199334 0)
(0.0966132 0.000242564 0)
(0.0963784 0.000294752 0)
(0.0960964 0.000358045 0)
(0.0957586 0.00043526 0)
(0.0953539 0.000530151 0)
(0.0948689 0.000647801 0)
(0.0942863 0.000795212 0)
(0.0935844 0.000982204 0)
(0.0927347 0.00122282 0)
(0.0916999 0.00153752 0)
(0.0904307 0.00195668 0)
(0.0888612 0.00252612 0)
(0.0869044 0.00331573 0)
(0.0844468 0.00443202 0)
(0.0813391 0.00603531 0)
(0.0774148 0.00836237 0)
(0.0727277 0.0116915 0)
(0.0686305 0.0158913 0)
(0.100003 -3.67387e-06 0)
(0.100012 -2.90899e-06 0)
(0.100015 3.52481e-06 0)
(0.100001 1.54804e-05 0)
(0.0999601 3.08891e-05 0)
(0.0998903 4.6612e-05 0)
(0.0997948 5.96904e-05 0)
(0.0996815 6.83805e-05 0)
(0.0995593 7.24663e-05 0)
(0.0994361 7.28872e-05 0)
(0.0993169 7.10744e-05 0)
(0.0992041 6.83682e-05 0)
(0.0990981 6.57056e-05 0)
(0.0989981 6.3565e-05 0)
(0.0989031 6.20651e-05 0)
(0.098812 6.11143e-05 0)
(0.0987239 6.05352e-05 0)
(0.0986386 6.01482e-05 0)
(0.0985556 5.98091e-05 0)
(0.0984751 5.94186e-05 0)
(0.0983971 5.89157e-05 0)
(0.0983216 5.82686e-05 0)
(0.0982489 5.74613e-05 0)
(0.0981791 5.64881e-05 0)
(0.0981123 5.53473e-05 0)
(0.0980487 5.4039e-05 0)
(0.0979883 5.25629e-05 0)
(0.0979313 5.0919e-05 0)
(0.0978778 4.91073e-05 0)
(0.0978279 4.71289e-05 0)
(0.0977816 4.49868e-05 0)
(0.097739 4.2687e-05 0)
(0.0977002 4.02394e-05 0)
(0.0976651 3.76581e-05 0)
(0.0976339 3.49618e-05 0)
(0.0976064 3.21764e-05 0)
(0.0975826 2.93335e-05 0)
(0.0975625 2.64729e-05 0)
(0.0975458 2.36407e-05 0)
(0.0975325 2.08924e-05 0)
(0.0975223 1.82911e-05 0)
(0.097515 1.59096e-05 0)
(0.0975102 1.38306e-05 0)
(0.0975075 1.21472e-05 0)
(0.0975066 1.0964e-05 0)
(0.0975068 1.0398e-05 0)
(0.0975077 1.05811e-05 0)
(0.0975085 1.16604e-05 0)
(0.0975086 1.38014e-05 0)
(0.0975071 1.71921e-05 0)
(0.0975032 2.20457e-05 0)
(0.0974957 2.86051e-05 0)
(0.0974836 3.71495e-05 0)
(0.0974657 4.80017e-05 0)
(0.0974405 6.15385e-05 0)
(0.0974064 7.82011e-05 0)
(0.0973617 9.85115e-05 0)
(0.0973044 0.000123092 0)
(0.0972323 0.000152689 0)
(0.0971428 0.000188209 0)
(0.0970329 0.000230755 0)
(0.0968992 0.000281692 0)
(0.0967378 0.000342713 0)
(0.0965441 0.00041595 0)
(0.0963126 0.000504108 0)
(0.0960368 0.000610664 0)
(0.0957091 0.000740137 0)
(0.0953201 0.00089848 0)
(0.0948584 0.00109364 0)
(0.0943104 0.00133637 0)
(0.0936591 0.00164144 0)
(0.0928841 0.00202939 0)
(0.0919602 0.00252913 0)
(0.0908578 0.00318168 0)
(0.0895431 0.00404532 0)
(0.0879815 0.00520195 0)
(0.0861464 0.0067624 0)
(0.0840362 0.00886438 0)
(0.0817184 0.0116477 0)
(0.0794655 0.0151298 0)
(0.0780089 0.0186984 0)
(0.100003 -5.35488e-06 0)
(0.100012 -4.37702e-06 0)
(0.100017 4.79375e-06 0)
(0.100003 2.19396e-05 0)
(0.0999648 4.41184e-05 0)
(0.0998975 6.68258e-05 0)
(0.0998048 8.57939e-05 0)
(0.0996939 9.84854e-05 0)
(0.0995737 0.000104554 0)
(0.0994517 0.000105323 0)
(0.0993332 0.000102834 0)
(0.0992206 9.90138e-05 0)
(0.0991146 9.52161e-05 0)
(0.0990145 9.21414e-05 0)
(0.0989192 8.99719e-05 0)
(0.0988279 8.8585e-05 0)
(0.0987398 8.7733e-05 0)
(0.0986544 8.71614e-05 0)
(0.0985714 8.66642e-05 0)
(0.0984909 8.60987e-05 0)
(0.0984129 8.53783e-05 0)
(0.0983374 8.44559e-05 0)
(0.0982647 8.33086e-05 0)
(0.0981948 8.19276e-05 0)
(0.0981278 8.03103e-05 0)
(0.0980639 7.84567e-05 0)
(0.0980033 7.63668e-05 0)
(0.0979458 7.40405e-05 0)
(0.0978918 7.14782e-05 0)
(0.0978412 6.8682e-05 0)
(0.0977941 6.56564e-05 0)
(0.0977506 6.24109e-05 0)
(0.0977106 5.89595e-05 0)
(0.0976743 5.53232e-05 0)
(0.0976416 5.153e-05 0)
(0.0976125 4.76167e-05 0)
(0.0975869 4.36297e-05 0)
(0.0975648 3.96264e-05 0)
(0.0975459 3.56739e-05 0)
(0.0975301 3.18518e-05 0)
(0.0975173 2.82513e-05 0)
(0.097507 2.49774e-05 0)
(0.0974991 2.21494e-05 0)
(0.097493 1.99007e-05 0)
(0.0974884 1.83819e-05 0)
(0.0974848 1.77612e-05 0)
(0.0974816 1.82273e-05 0)
(0.0974782 1.99911e-05 0)
(0.0974738 2.32906e-05 0)
(0.0974676 2.83936e-05 0)
(0.0974588 3.56042e-05 0)
(0.0974464 4.52685e-05 0)
(0.0974293 5.77835e-05 0)
(0.0974063 7.36071e-05 0)
(0.097376 9.32719e-05 0)
(0.0973369 0.0001174 0)
(0.0972874 0.000146726 0)
(0.0972256 0.000182121 0)
(0.0971494 0.000224627 0)
(0.0970564 0.0002755 0)
(0.096944 0.000336267 0)
(0.096809 0.000408797 0)
(0.096648 0.000495399 0)
(0.096457 0.000598952 0)
(0.0962312 0.000723075 0)
(0.0959654 0.000872364 0)
(0.0956533 0.00105271 0)
(0.0952877 0.00127174 0)
(0.0948602 0.00153944 0)
(0.0943614 0.00186899 0)
(0.0937807 0.00227793 0)
(0.0931065 0.00278975 0)
(0.0923273 0.00343602 0)
(0.0914331 0.00425885 0)
(0.0904195 0.00531351 0)
(0.0892933 0.00666963 0)
(0.088085 0.00840704 0)
(0.0868656 0.0105979 0)
(0.0857712 0.0132588 0)
(0.085031 0.0162321 0)
(0.0849322 0.018923 0)
(0.100003 -7.18441e-06 0)
(0.100013 -6.09822e-06 0)
(0.100018 5.82612e-06 0)
(0.100007 2.83082e-05 0)
(0.0999711 5.75376e-05 0)
(0.0999075 8.76098e-05 0)
(0.0998187 0.000112887 0)
(0.0997113 0.000129974 0)
(0.0995939 0.000138346 0)
(0.0994738 0.000139685 0)
(0.0993564 0.000136646 0)
(0.0992443 0.00013176 0)
(0.0991383 0.000126823 0)
(0.099038 0.000122779 0)
(0.0989426 0.000119894 0)
(0.0988511 0.000118024 0)
(0.0987629 0.000116859 0)
(0.0986775 0.000116069 0)
(0.0985946 0.000115388 0)
(0.0985142 0.000114629 0)
(0.0984363 0.000113678 0)
(0.098361 0.00011247 0)
(0.0982884 0.000110977 0)
(0.0982185 0.000109184 0)
(0.0981515 0.000107088 0)
(0.0980875 0.000104688 0)
(0.0980265 0.000101986 0)
(0.0979687 9.89811e-05 0)
(0.0979142 9.56747e-05 0)
(0.0978629 9.207e-05 0)
(0.097815 8.81741e-05 0)
(0.0977705 8.39997e-05 0)
(0.0977293 7.95668e-05 0)
(0.0976916 7.49035e-05 0)
(0.0976573 7.00481e-05 0)
(0.0976263 6.50492e-05 0)
(0.0975986 5.99697e-05 0)
(0.0975741 5.48848e-05 0)
(0.0975526 4.98846e-05 0)
(0.0975339 4.50735e-05 0)
(0.0975178 4.05731e-05 0)
(0.097504 3.65216e-05 0)
(0.0974923 3.30765e-05 0)
(0.0974821 3.04137e-05 0)
(0.0974732 2.87315e-05 0)
(0.0974649 2.82512e-05 0)
(0.0974568 2.92198e-05 0)
(0.0974481 3.19142e-05 0)
(0.0974383 3.66456e-05 0)
(0.0974265 4.3764e-05 0)
(0.0974119 5.36654e-05 0)
(0.0973935 6.67998e-05 0)
(0.0973704 8.36813e-05 0)
(0.0973413 0.000104902 0)
(0.097305 0.000131147 0)
(0.0972601 0.000163213 0)
(0.0972051 0.000202039 0)
(0.0971382 0.000248729 0)
(0.0970577 0.000304599 0)
(0.0969613 0.000371225 0)
(0.0968467 0.000450505 0)
(0.0967114 0.000544747 0)
(0.0965524 0.000656773 0)
(0.0963663 0.000790059 0)
(0.0961497 0.000948918 0)
(0.0958985 0.00113874 0)
(0.0956082 0.00136631 0)
(0.0952741 0.00164021 0)
(0.0948913 0.00197138 0)
(0.0944548 0.00237383 0)
(0.0939604 0.00286545 0)
(0.0934052 0.00346915 0)
(0.0927892 0.00421392 0)
(0.0921183 0.00513568 0)
(0.0914074 0.00627719 0)
(0.090687 0.00768523 0)
(0.0900102 0.00940169 0)
(0.0894615 0.0114428 0)
(0.0891595 0.0137578 0)
(0.0892422 0.0161589 0)
(0.0897922 0.0182303 0)
(0.100003 -9.18239e-06 0)
(0.100013 -8.13692e-06 0)
(0.100019 6.48163e-06 0)
(0.100011 3.43552e-05 0)
(0.099979 7.08377e-05 0)
(0.0999202 0.000108617 0)
(0.0998364 0.000140642 0)
(0.0997338 0.000162588 0)
(0.0996201 0.000173681 0)
(0.0995027 0.000175915 0)
(0.0993868 0.000172541 0)
(0.0992753 0.0001667 0)
(0.0991695 0.000160653 0)
(0.0990691 0.000155618 0)
(0.0989735 0.000151967 0)
(0.098882 0.000149556 0)
(0.0987938 0.00014802 0)
(0.0987085 0.000146964 0)
(0.0986259 0.000146061 0)
(0.0985458 0.000145081 0)
(0.0984682 0.000143879 0)
(0.0983932 0.000142374 0)
(0.0983208 0.000140527 0)
(0.0982511 0.00013832 0)
(0.0981842 0.000135748 0)
(0.0981202 0.00013281 0)
(0.0980592 0.000129506 0)
(0.0980012 0.000125838 0)
(0.0979462 0.000121809 0)
(0.0978944 0.000117422 0)
(0.0978457 0.000112689 0)
(0.0978002 0.000107626 0)
(0.0977579 0.00010226 0)
(0.0977188 9.66275e-05 0)
(0.0976828 9.07771e-05 0)
(0.0976498 8.47725e-05 0)
(0.0976198 7.86919e-05 0)
(0.0975927 7.26309e-05 0)
(0.0975683 6.67028e-05 0)
(0.0975464 6.10391e-05 0)
(0.0975267 5.57923e-05 0)
(0.0975091 5.11357e-05 0)
(0.0974931 4.72653e-05 0)
(0.0974784 4.44013e-05 0)
(0.0974645 4.27907e-05 0)
(0.097451 4.27085e-05 0)
(0.0974373 4.44619e-05 0)
(0.0974229 4.83937e-05 0)
(0.097407 5.48884e-05 0)
(0.0973889 6.43777e-05 0)
(0.0973678 7.73484e-05 0)
(0.0973429 9.43511e-05 0)
(0.0973131 0.000116014 0)
(0.0972775 0.000143056 0)
(0.0972348 0.000176305 0)
(0.0971838 0.000216722 0)
(0.0971232 0.000265425 0)
(0.0970514 0.000323728 0)
(0.0969668 0.000393181 0)
(0.0968677 0.000475625 0)
(0.0967522 0.000573255 0)
(0.0966181 0.000688711 0)
(0.0964633 0.000825179 0)
(0.0962853 0.000986526 0)
(0.0960818 0.00117747 0)
(0.0958501 0.00140377 0)
(0.0955877 0.00167255 0)
(0.0952926 0.00199253 0)
(0.094963 0.00237449 0)
(0.0945982 0.00283167 0)
(0.0941994 0.00338027 0)
(0.0937705 0.00403983 0)
(0.09332 0.00483341 0)
(0.0928627 0.0057871 0)
(0.0924233 0.0069283 0)
(0.0920393 0.0082813 0)
(0.0917643 0.00985846 0)
(0.0916683 0.0116442 0)
(0.0918315 0.01357 0)
(0.0923219 0.0154828 0)
(0.0931435 0.0171257 0)
(0.100003 -1.13705e-05 0)
(0.100013 -1.0565e-05 0)
(0.100021 6.6026e-06 0)
(0.100016 3.98175e-05 0)
(0.0999883 8.36593e-05 0)
(0.0999353 0.000129437 0)
(0.0998577 0.000168657 0)
(0.0997609 0.000195993 0)
(0.0996519 0.000210332 0)
(0.0995379 0.000213904 0)
(0.099424 0.000210511 0)
(0.0993137 0.000203899 0)
(0.0992082 0.000196817 0)
(0.0991079 0.000190786 0)
(0.0990123 0.000186318 0)
(0.0989207 0.000183295 0)
(0.0988327 0.000181315 0)
(0.0987477 0.000179928 0)
(0.0986654 0.00017875 0)
(0.0985858 0.000177508 0)
(0.0985087 0.000176026 0)
(0.0984342 0.000174207 0)
(0.0983623 0.000171997 0)
(0.0982931 0.000169376 0)
(0.0982266 0.000166335 0)
(0.0981628 0.000162872 0)
(0.0981019 0.000158987 0)
(0.0980438 0.000154684 0)
(0.0979886 0.000149965 0)
(0.0979364 0.00014484 0)
(0.0978871 0.000139322 0)
(0.0978407 0.000133435 0)
(0.0977973 0.000127211 0)
(0.0977568 0.000120697 0)
(0.0977191 0.000113954 0)
(0.0976841 0.00010706 0)
(0.0976519 0.000100111 0)
(0.0976221 9.32241e-05 0)
(0.0975947 8.65363e-05 0)
(0.0975694 8.02077e-05 0)
(0.097546 7.44221e-05 0)
(0.0975242 6.93885e-05 0)
(0.0975037 6.53427e-05 0)
(0.0974842 6.25496e-05 0)
(0.0974651 6.13045e-05 0)
(0.097446 6.19365e-05 0)
(0.0974265 6.48116e-05 0)
(0.0974059 7.03383e-05 0)
(0.0973836 7.89723e-05 0)
(0.0973589 9.12237e-05 0)
(0.0973311 0.000107665 0)
(0.0972993 0.000128943 0)
(0.0972628 0.000155789 0)
(0.0972205 0.000189037 0)
(0.0971715 0.000229642 0)
(0.0971147 0.000278703 0)
(0.0970488 0.000337491 0)
(0.0969728 0.000407485 0)
(0.0968852 0.000490413 0)
(0.0967847 0.000588305 0)
(0.0966699 0.000703555 0)
(0.0965392 0.000838993 0)
(0.0963914 0.000997989 0)
(0.0962248 0.00118455 0)
(0.0960383 0.00140346 0)
(0.0958308 0.00166045 0)
(0.0956016 0.00196233 0)
(0.095351 0.00231724 0)
(0.09508 0.00273482 0)
(0.0947913 0.00322635 0)
(0.0944901 0.00380491 0)
(0.0941844 0.00448519 0)
(0.0938872 0.00528306 0)
(0.0936169 0.00621447 0)
(0.0933997 0.00729312 0)
(0.0932701 0.00852652 0)
(0.0932715 0.00990938 0)
(0.0934529 0.011414 0)
(0.093861 0.012978 0)
(0.094523 0.0144943 0)
(0.0954199 0.015812 0)
(0.100003 -1.37704e-05 0)
(0.100014 -1.34545e-05 0)
(0.100023 6.02635e-06 0)
(0.100021 4.44172e-05 0)
(0.0999986 9.56161e-05 0)
(0.0999522 0.000149617 0)
(0.0998818 0.000196478 0)
(0.0997918 0.000229798 0)
(0.0996885 0.000248013 0)
(0.0995786 0.000253483 0)
(0.0994674 0.000250497 0)
(0.0993586 0.000243383 0)
(0.0992538 0.000235392 0)
(0.0991538 0.000228385 0)
(0.0990583 0.000223053 0)
(0.0989669 0.000219337 0)
(0.0988792 0.000216825 0)
(0.0987947 0.000215023 0)
(0.098713 0.000213501 0)
(0.0986341 0.000211944 0)
(0.0985578 0.000210147 0)
(0.098484 0.000207989 0)
(0.0984129 0.000205407 0)
(0.0983443 0.000202371 0)
(0.0982783 0.00019887 0)
(0.098215 0.000194901 0)
(0.0981544 0.000190464 0)
(0.0980965 0.000185563 0)
(0.0980413 0.000180206 0)
(0.0979888 0.000174403 0)
(0.0979391 0.000168174 0)
(0.097892 0.000161549 0)
(0.0978476 0.000154569 0)
(0.0978058 0.000147291 0)
(0.0977665 0.000139791 0)
(0.0977296 0.000132162 0)
(0.097695 0.000124518 0)
(0.0976626 0.000116999 0)
(0.0976322 0.000109767 0)
(0.0976035 0.00010301 0)
(0.0975763 9.6945e-05 0)
(0.0975503 9.18159e-05 0)
(0.0975252 8.78985e-05 0)
(0.0975007 8.55011e-05 0)
(0.0974763 8.49667e-05 0)
(0.0974515 8.66769e-05 0)
(0.097426 9.10545e-05 0)
(0.0973992 9.85696e-05 0)
(0.0973704 0.000109745 0)
(0.0973391 0.000125163 0)
(0.0973046 0.000145475 0)
(0.0972662 0.00017141 0)
(0.0972232 0.00020379 0)
(0.0971746 0.000243545 0)
(0.0971198 0.000291733 0)
(0.0970577 0.000349557 0)
(0.0969876 0.0004184 0)
(0.0969084 0.00049985 0)
(0.0968192 0.000595743 0)
(0.096719 0.000708203 0)
(0.096607 0.000839699 0)
(0.0964823 0.000993101 0)
(0.0963443 0.00117175 0)
(0.0961924 0.00137955 0)
(0.0960265 0.00162103 0)
(0.0958469 0.00190143 0)
(0.0956546 0.00222682 0)
(0.0954515 0.00260413 0)
(0.0952408 0.00304117 0)
(0.0950275 0.00354663 0)
(0.0948188 0.00412984 0)
(0.0946249 0.0048004 0)
(0.0944595 0.00556745 0)
(0.0943408 0.00643843 0)
(0.0942915 0.00741714 0)
(0.0943391 0.00850087 0)
(0.0945141 0.00967641 0)
(0.0948471 0.0109153 0)
(0.0953621 0.0121693 0)
(0.0960667 0.0133684 0)
(0.0969396 0.0144264 0)
(0.100003 -1.64003e-05 0)
(0.100014 -1.68709e-05 0)
(0.100025 4.60133e-06 0)
(0.100026 4.78886e-05 0)
(0.100009 0.000106328 0)
(0.0999701 0.000168697 0)
(0.0999076 0.000223627 0)
(0.0998252 0.00026357 0)
(0.0997284 0.000286382 0)
(0.0996234 0.000294425 0)
(0.0995156 0.00029238 0)
(0.0994087 0.000285121 0)
(0.0993051 0.000276408 0)
(0.0992057 0.000268477 0)
(0.0991107 0.000262244 0)
(0.0990197 0.000257751 0)
(0.0989325 0.000254607 0)
(0.0988487 0.000252293 0)
(0.0987679 0.000250345 0)
(0.0986898 0.000248409 0)
(0.0986145 0.00024625 0)
(0.0985417 0.000243726 0)
(0.0984715 0.000240758 0)
(0.0984038 0.000237308 0)
(0.0983387 0.00023336 0)
(0.098276 0.00022891 0)
(0.0982159 0.000223959 0)
(0.0981584 0.000218511 0)
(0.0981033 0.000212577 0)
(0.0980508 0.000206175 0)
(0.0980007 0.000199328 0)
(0.0979531 0.000192076 0)
(0.0979078 0.000184468 0)
(0.0978648 0.000176576 0)
(0.097824 0.000168488 0)
(0.0977853 0.000160314 0)
(0.0977485 0.00015219 0)
(0.0977135 0.000144275 0)
(0.0976801 0.000136759 0)
(0.097648 0.000129857 0)
(0.097617 0.000123818 0)
(0.0975869 0.000118922 0)
(0.0975572 0.000115483 0)
(0.0975278 0.00011385 0)
(0.0974981 0.000114412 0)
(0.0974678 0.000117599 0)
(0.0974364 0.000123887 0)
(0.0974034 0.000133801 0)
(0.0973684 0.000147924 0)
(0.0973307 0.0001669 0)
(0.0972899 0.000191446 0)
(0.0972453 0.00022236 0)
(0.0971962 0.000260534 0)
(0.0971421 0.000306967 0)
(0.0970823 0.000362787 0)
(0.0970161 0.000429263 0)
(0.0969429 0.000507834 0)
(0.096862 0.000600134 0)
(0.0967729 0.000708022 0)
(0.0966751 0.000833613 0)
(0.0965682 0.000979322 0)
(0.0964519 0.0011479 0)
(0.0963264 0.00134246 0)
(0.0961919 0.00156657 0)
(0.0960493 0.0018242 0)
(0.0959 0.00211983 0)
(0.0957462 0.0024584 0)
(0.0955909 0.00284528 0)
(0.0954386 0.00328621 0)
(0.0952954 0.00378705 0)
(0.0951692 0.00435356 0)
(0.09507 0.00499084 0)
(0.0950106 0.00570267 0)
(0.0950062 0.00649052 0)
(0.0950746 0.00735214 0)
(0.0952352 0.00827991 0)
(0.0955076 0.00925887 0)
(0.095909 0.0102648 0)
(0.0964502 0.0112632 0)
(0.0971304 0.0122101 0)
(0.0979323 0.0130566 0)
(0.100003 -1.92734e-05 0)
(0.100015 -2.08649e-05 0)
(0.100027 2.20454e-06 0)
(0.100031 5.00078e-05 0)
(0.10002 0.000115461 0)
(0.0999881 0.000186257 0)
(0.0999338 0.000249645 0)
(0.0998594 0.000296866 0)
(0.0997697 0.000325062 0)
(0.0996704 0.000336444 0)
(0.0995665 0.000335972 0)
(0.0994624 0.000329011 0)
(0.0993604 0.000319827 0)
(0.0992621 0.000311067 0)
(0.0991678 0.000303919 0)
(0.0990777 0.000298573 0)
(0.0989913 0.000294692 0)
(0.0989084 0.000291764 0)
(0.0988286 0.000289298 0)
(0.0987517 0.00028691 0)
(0.0986775 0.000284338 0)
(0.0986059 0.000281414 0)
(0.0985369 0.000278046 0)
(0.0984702 0.000274186 0)
(0.098406 0.00026981 0)
(0.0983443 0.000264913 0)
(0.0982848 0.000259494 0)
(0.0982278 0.000253563 0)
(0.098173 0.000247133 0)
(0.0981205 0.000240227 0)
(0.0980703 0.000232879 0)
(0.0980222 0.000225134 0)
(0.0979761 0.000217056 0)
(0.0979321 0.000208728 0)
(0.0978898 0.000200254 0)
(0.0978493 0.000191762 0)
(0.0978104 0.000183407 0)
(0.0977729 0.000175373 0)
(0.0977365 0.000167872 0)
(0.0977011 0.00016115 0)
(0.0976665 0.000155485 0)
(0.0976323 0.00015119 0)
(0.0975982 0.000148614 0)
(0.0975639 0.000148147 0)
(0.0975291 0.000150216 0)
(0.0974934 0.000155296 0)
(0.0974564 0.000163908 0)
(0.0974177 0.000176625 0)
(0.0973768 0.000194077 0)
(0.0973333 0.000216958 0)
(0.0972867 0.000246034 0)
(0.0972365 0.00028215 0)
(0.0971823 0.000326242 0)
(0.0971236 0.00037935 0)
(0.09706 0.000442628 0)
(0.0969909 0.000517365 0)
(0.0969161 0.000604999 0)
(0.0968353 0.000707136 0)
(0.0967481 0.000825569 0)
(0.0966547 0.000962305 0)
(0.0965549 0.00111958 0)
(0.0964494 0.00129986 0)
(0.0963385 0.00150591 0)
(0.0962235 0.00174072 0)
(0.0961057 0.00200755 0)
(0.0959875 0.0023099 0)
(0.0958715 0.00265144 0)
(0.0957617 0.00303588 0)
(0.0956628 0.00346688 0)
(0.0955811 0.0039478 0)
(0.095524 0.00448135 0)
(0.0955003 0.00506923 0)
(0.0955207 0.00571153 0)
(0.0955966 0.0064061 0)
(0.0957408 0.00714775 0)
(0.0959658 0.00792743 0)
(0.096283 0.00873149 0)
(0.0967013 0.00954118 0)
(0.0972243 0.0103329 0)
(0.0978484 0.0110794 0)
(0.0985608 0.0117528 0)
(0.100003 -2.23966e-05 0)
(0.100015 -2.54649e-05 0)
(0.100029 -1.24003e-06 0)
(0.100036 5.06234e-05 0)
(0.10003 0.000122771 0)
(0.100005 0.000201966 0)
(0.0999589 0.00027414 0)
(0.0998928 0.000329276 0)
(0.0998106 0.000363666 0)
(0.0997174 0.000379212 0)
(0.0996182 0.000381021 0)
(0.0995173 0.000374875 0)
(0.0994177 0.000365537 0)
(0.0993209 0.000356092 0)
(0.099228 0.000348049 0)
(0.0991389 0.000341792 0)
(0.0990537 0.000337082 0)
(0.098972 0.000333438 0)
(0.0988935 0.000330362 0)
(0.0988179 0.000327449 0)
(0.098745 0.00032441 0)
(0.0986748 0.000321057 0)
(0.098607 0.000317279 0)
(0.0985416 0.000313016 0)
(0.0984785 0.000308239 0)
(0.0984176 0.000302938 0)
(0.098359 0.000297114 0)
(0.0983025 0.000290779 0)
(0.0982481 0.000283951 0)
(0.0981957 0.00027666 0)
(0.0981453 0.000268948 0)
(0.0980968 0.000260872 0)
(0.09805 0.000252509 0)
(0.0980049 0.000243953 0)
(0.0979613 0.000235327 0)
(0.0979191 0.000226777 0)
(0.0978781 0.000218478 0)
(0.097838 0.000210635 0)
(0.0977988 0.000203486 0)
(0.0977602 0.000197302 0)
(0.097722 0.000192389 0)
(0.0976838 0.00018909 0)
(0.0976454 0.000187787 0)
(0.0976066 0.000188901 0)
(0.0975669 0.000192897 0)
(0.0975261 0.000200283 0)
(0.0974839 0.000211616 0)
(0.0974399 0.000227505 0)
(0.0973937 0.000248615 0)
(0.0973449 0.000275672 0)
(0.0972934 0.000309468 0)
(0.0972386 0.000350873 0)
(0.0971802 0.000400836 0)
(0.0971181 0.000460399 0)
(0.0970519 0.000530704 0)
(0.0969815 0.000613004 0)
(0.0969067 0.000708677 0)
(0.0968275 0.000819227 0)
(0.0967442 0.000946305 0)
(0.0966569 0.00109171 0)
(0.0965663 0.00125738 0)
(0.0964731 0.00144543 0)
(0.0963783 0.00165809 0)
(0.0962836 0.00189772 0)
(0.0961909 0.00216675 0)
(0.0961028 0.00246764 0)
(0.0960223 0.00280278 0)
(0.0959534 0.00317437 0)
(0.0959008 0.00358428 0)
(0.0958701 0.00403381 0)
(0.0958675 0.00452347 0)
(0.0959005 0.00505265 0)
(0.0959767 0.00561927 0)
(0.0961044 0.00621944 0)
(0.096292 0.00684705 0)
(0.0965468 0.00749353 0)
(0.096875 0.00814765 0)
(0.0972803 0.00879563 0)
(0.0977631 0.00942165 0)
(0.0983191 0.0100089 0)
(0.0989391 0.0105411 0)
(0.100003 -2.57678e-05 0)
(0.100015 -3.06711e-05 0)
(0.10003 -5.75057e-06 0)
(0.10004 4.96762e-05 0)
(0.100038 0.000128133 0)
(0.10002 0.000215615 0)
(0.0999816 0.000296824 0)
(0.0999236 0.000360456 0)
(0.099849 0.00040183 0)
(0.0997623 0.000422377 0)
(0.0996683 0.000427214 0)
(0.0995714 0.00042246 0)
(0.0994747 0.000413346 0)
(0.0993802 0.000403417 0)
(0.099289 0.000394543 0)
(0.0992015 0.000387353 0)
(0.0991178 0.000381745 0)
(0.0990375 0.000377299 0)
(0.0989604 0.000373532 0)
(0.0988863 0.000370028 0)
(0.098815 0.000366477 0)
(0.0987461 0.000362671 0)
(0.0986797 0.000358481 0)
(0.0986155 0.000353835 0)
(0.0985536 0.000348696 0)
(0.0984937 0.000343051 0)
(0.0984358 0.000336901 0)
(0.0983799 0.000330261 0)
(0.0983259 0.000323155 0)
(0.0982736 0.000315621 0)
(0.0982231 0.00030771 0)
(0.0981741 0.000299493 0)
(0.0981266 0.000291057 0)
(0.0980804 0.000282514 0)
(0.0980354 0.000274002 0)
(0.0979914 0.000265685 0)
(0.0979483 0.000257758 0)
(0.0979058 0.000250448 0)
(0.0978638 0.000244013 0)
(0.097822 0.000238748 0)
(0.0977803 0.000234986 0)
(0.0977383 0.000233093 0)
(0.0976959 0.000233479 0)
(0.0976527 0.00023659 0)
(0.0976085 0.000242917 0)
(0.0975631 0.000252994 0)
(0.0975161 0.000267403 0)
(0.0974673 0.000286772 0)
(0.0974165 0.000311785 0)
(0.0973633 0.000343178 0)
(0.0973076 0.000381749 0)
(0.0972492 0.000428361 0)
(0.0971879 0.000483944 0)
(0.0971235 0.000549505 0)
(0.0970561 0.000626127 0)
(0.0969858 0.000714981 0)
(0.0969125 0.000817321 0)
(0.0968367 0.000934492 0)
(0.0967587 0.00106793 0)
(0.0966792 0.00121914 0)
(0.0965989 0.00138973 0)
(0.0965191 0.00158133 0)
(0.096441 0.00179563 0)
(0.0963665 0.00203429 0)
(0.0962978 0.00229893 0)
(0.0962374 0.00259102 0)
(0.0961884 0.00291184 0)
(0.0961545 0.00326232 0)
(0.0961399 0.00364292 0)
(0.096149 0.0040535 0)
(0.096187 0.00449311 0)
(0.0962593 0.00495983 0)
(0.0963713 0.00545058 0)
(0.0965286 0.00596094 0)
(0.0967359 0.00648507 0)
(0.0969975 0.00701565 0)
(0.0973161 0.00754399 0)
(0.0976928 0.00806024 0)
(0.0981263 0.00855389 0)
(0.0986127 0.00901442 0)
(0.0991454 0.00943227 0)
(0.100003 -2.93766e-05 0)
(0.100015 -3.64556e-05 0)
(0.10003 -1.12848e-05 0)
(0.100043 4.72066e-05 0)
(0.100045 0.000131555 0)
(0.100032 0.000227143 0)
(0.100001 0.000317546 0)
(0.0999505 0.000390164 0)
(0.0998834 0.000439241 0)
(0.0998033 0.000465592 0)
(0.099715 0.000474209 0)
(0.0996226 0.000471454 0)
(0.0995295 0.000462994 0)
(0.0994378 0.000452839 0)
(0.0993489 0.000443254 0)
(0.0992635 0.000435154 0)
(0.0991815 0.000428617 0)
(0.0991029 0.000423315 0)
(0.0990275 0.0004188 0)
(0.0989551 0.000414658 0)
(0.0988852 0.000410566 0)
(0.0988179 0.000406299 0)
(0.0987528 0.000401711 0)
(0.0986899 0.000396718 0)
(0.098629 0.000391275 0)
(0.0985701 0.000385366 0)
(0.098513 0.000378991 0)
(0.0984576 0.000372169 0)
(0.0984038 0.000364931 0)
(0.0983516 0.000357323 0)
(0.0983008 0.000349408 0)
(0.0982512 0.000341267 0)
(0.0982029 0.000333003 0)
(0.0981555 0.000324742 0)
(0.098109 0.000316639 0)
(0.0980632 0.000308875 0)
(0.098018 0.000301662 0)
(0.097973 0.000295247 0)
(0.0979282 0.000289908 0)
(0.0978834 0.000285959 0)
(0.0978383 0.000283752 0)
(0.0977927 0.000283674 0)
(0.0977464 0.000286152 0)
(0.0976992 0.000291652 0)
(0.0976509 0.00030068 0)
(0.0976012 0.000313783 0)
(0.0975501 0.000331552 0)
(0.0974972 0.00035462 0)
(0.0974425 0.000383667 0)
(0.0973857 0.000419421 0)
(0.0973269 0.000462657 0)
(0.0972659 0.000514203 0)
(0.0972027 0.000574936 0)
(0.0971375 0.00064579 0)
(0.0970702 0.000727751 0)
(0.0970013 0.000821856 0)
(0.096931 0.000929194 0)
(0.0968598 0.0010509 0)
(0.0967884 0.00118813 0)
(0.0967176 0.00134208 0)
(0.0966484 0.00151395 0)
(0.0965822 0.00170491 0)
(0.0965205 0.00191607 0)
(0.096465 0.00214845 0)
(0.0964181 0.00240292 0)
(0.096382 0.00268013 0)
(0.0963596 0.00298044 0)
(0.0963541 0.00330383 0)
(0.0963687 0.00364982 0)
(0.0964071 0.00401732 0)
(0.096473 0.00440462 0)
(0.0965702 0.00480919 0)
(0.0967022 0.00522772 0)
(0.0968724 0.00565599 0)
(0.0970835 0.00608893 0)
(0.0973373 0.00652068 0)
(0.0976348 0.00694474 0)
(0.0979757 0.00735418 0)
(0.0983582 0.00774201 0)
(0.098779 0.00810155 0)
(0.0992333 0.00842701 0)
(0.100003 -3.3205e-05 0)
(0.100015 -4.27671e-05 0)
(0.100031 -1.7749e-05 0)
(0.100044 4.33421e-05 0)
(0.10005 0.000133162 0)
(0.100042 0.00023663 0)
(0.100016 0.000336293 0)
(0.0999728 0.000418271 0)
(0.0999127 0.000475663 0)
(0.0998393 0.000508543 0)
(0.0997569 0.000521655 0)
(0.0996695 0.000521513 0)
(0.0995804 0.000514172 0)
(0.0994921 0.0005041 0)
(0.0994061 0.000493983 0)
(0.099323 0.000485057 0)
(0.0992432 0.000477611 0)
(0.0991666 0.00047144 0)
(0.099093 0.000466155 0)
(0.0990222 0.000461358 0)
(0.098954 0.000456723 0)
(0.0988881 0.000452012 0)
(0.0988244 0.000447064 0)
(0.0987627 0.000441785 0)
(0.0987028 0.000436121 0)
(0.0986447 0.000430052 0)
(0.0985882 0.000423582 0)
(0.0985331 0.000416731 0)
(0.0984795 0.000409537 0)
(0.0984271 0.000402055 0)
(0.0983759 0.00039436 0)
(0.0983257 0.000386544 0)
(0.0982763 0.000378726 0)
(0.0982277 0.000371045 0)
(0.0981796 0.000363671 0)
(0.0981319 0.000356802 0)
(0.0980845 0.000350665 0)
(0.098037 0.000345522 0)
(0.0979895 0.000341667 0)
(0.0979416 0.00033943 0)
(0.0978933 0.000339174 0)
(0.0978443 0.0003413 0)
(0.0977944 0.000346245 0)
(0.0977435 0.000354482 0)
(0.0976915 0.00036652 0)
(0.0976382 0.000382907 0)
(0.0975835 0.000404225 0)
(0.0975273 0.000431096 0)
(0.0974694 0.000464176 0)
(0.09741 0.000504157 0)
(0.097349 0.000551769 0)
(0.0972865 0.000607775 0)
(0.0972227 0.000672969 0)
(0.0971576 0.000748179 0)
(0.0970917 0.000834256 0)
(0.0970254 0.000932072 0)
(0.0969591 0.00104251 0)
(0.0968935 0.00116647 0)
(0.0968295 0.00130481 0)
(0.0967679 0.00145839 0)
(0.0967099 0.00162801 0)
(0.0966569 0.00181438 0)
(0.0966103 0.0020181 0)
(0.096572 0.00223963 0)
(0.0965439 0.00247923 0)
(0.0965281 0.0027369 0)
(0.0965269 0.00301234 0)
(0.096543 0.0033049 0)
(0.0965787 0.00361351 0)
(0.0966369 0.00393662 0)
(0.0967201 0.00427218 0)
(0.0968307 0.00461758 0)
(0.0969709 0.0049697 0)
(0.0971425 0.00532485 0)
(0.0973467 0.0056789 0)
(0.0975844 0.00602732 0)
(0.0978552 0.00636536 0)
(0.0981583 0.00668817 0)
(0.098492 0.00699106 0)
(0.0988535 0.00726973 0)
(0.0992393 0.00752056 0)
(0.100003 -3.72299e-05 0)
(0.100014 -4.95373e-05 0)
(0.10003 -2.50133e-05 0)
(0.100045 3.82725e-05 0)
(0.100053 0.000133176 0)
(0.100048 0.00024427 0)
(0.100028 0.000353175 0)
(0.0999903 0.000444765 0)