/*--------------------------------*- C++ -*----------------------------------*\
| =========                 |                                                 |
| \\      /  F ield         | OpenFOAM: The Open Source CFD Toolbox           |
|  \\    /   O peration     | Version:  4.1                                   |
|   \\  /    A nd           | Web:      www.OpenFOAM.org                      |
|    \\/     M anipulation  |                                                 |
\*---------------------------------------------------------------------------*/
FoamFile
{
    version     2.0;
    format      ascii;
    class       surfaceScalarField;
    location    "1";
    object      phi;
}
// * * * * * * * * * * * * * * * * * * * * * * * * * * * * * * * * * * * * * //

dimensions      [1 0 -1 0 0 0 0];

internalField   nonuniform List<scalar> 
23692
(
9.30758e-05
3.73844e-09
9.30662e-05
9.63002e-09
9.30471e-05
1.911e-08
9.30139e-05
3.3196e-08
9.2962e-05
5.19313e-08
9.2888e-05
7.39327e-08
9.27913e-05
9.67332e-08
9.26737e-05
1.17609e-07
9.25393e-05
1.34428e-07
9.23931e-05
1.46162e-07
9.22402e-05
1.52925e-07
9.20845e-05
1.55652e-07
9.19289e-05
1.55645e-07
9.17747e-05
1.54177e-07
9.16225e-05
1.52245e-07
9.1472e-05
1.50488e-07
9.13228e-05
1.49231e-07
9.11742e-05
1.48562e-07
9.10258e-05
1.48435e-07
9.0877e-05
1.48747e-07
9.07276e-05
1.49382e-07
9.05774e-05
1.50249e-07
9.04261e-05
1.51282e-07
9.02737e-05
1.52438e-07
9.012e-05
1.53699e-07
8.99649e-05
1.5506e-07
8.98084e-05
1.56525e-07
8.96503e-05
1.58105e-07
8.94905e-05
1.59807e-07
8.93289e-05
1.61648e-07
8.91652e-05
1.63635e-07
8.89994e-05
1.65783e-07
8.88313e-05
1.68097e-07
8.86608e-05
1.70591e-07
8.84875e-05
1.7327e-07
8.83113e-05
1.76143e-07
8.81321e-05
1.79221e-07
8.79496e-05
1.82513e-07
8.77636e-05
1.86028e-07
8.75738e-05
1.8978e-07
8.738e-05
1.93782e-07
8.7182e-05
1.98053e-07
8.69794e-05
2.02613e-07
8.67719e-05
2.07484e-07
8.65592e-05
2.12696e-07
8.63409e-05
2.18282e-07
8.61166e-05
2.24279e-07
8.58859e-05
2.30734e-07
8.56482e-05
2.37698e-07
8.5403e-05
2.45234e-07
8.51496e-05
2.53414e-07
8.48873e-05
2.6232e-07
8.46152e-05
2.7205e-07
8.43325e-05
2.82722e-07
8.4038e-05
2.94469e-07
8.37306e-05
3.07453e-07
8.34087e-05
3.21866e-07
8.30708e-05
3.37936e-07
8.27148e-05
3.55939e-07
8.23386e-05
3.76212e-07
8.19395e-05
3.99165e-07
8.15141e-05
4.25304e-07
8.10589e-05
4.55261e-07
8.05691e-05
4.89835e-07
8.0039e-05
5.30038e-07
7.94618e-05
5.77184e-07
7.88289e-05
6.32985e-07
7.81291e-05
6.9972e-07
7.73487e-05
7.8046e-07
7.64693e-05
8.79414e-07
7.54668e-05
1.00246e-06
7.43089e-05
1.15792e-06
7.2951e-05
1.35788e-06
7.1331e-05
1.62006e-06
6.936e-05
1.97099e-06
6.6909e-05
2.45093e-06
6.37878e-05
3.12125e-06
5.97112e-05
4.07659e-06
5.42375e-05
5.47369e-06
4.66355e-05
7.60203e-06
1.12303e-05
3.54052e-05
9.95955e-05
7.62579e-09
9.95853e-05
1.98052e-08
9.9565e-05
3.93565e-08
9.95298e-05
6.8414e-08
9.94747e-05
1.07099e-07
9.9396e-05
1.52571e-07
9.9293e-05
1.99734e-07
9.91677e-05
2.42951e-07
9.90243e-05
2.77807e-07
9.88683e-05
3.02158e-07
9.8705e-05
3.16228e-07
9.85387e-05
3.21939e-07
9.83724e-05
3.2198e-07
9.82076e-05
3.1898e-07
9.80448e-05
3.15001e-07
9.7884e-05
3.11376e-07
9.77244e-05
3.08773e-07
9.75656e-05
3.0738e-07
9.74069e-05
3.07106e-07
9.72479e-05
3.07736e-07
9.70883e-05
3.09039e-07
9.69277e-05
3.10824e-07
9.67661e-05
3.1295e-07
9.66032e-05
3.15334e-07
9.64389e-05
3.17938e-07
9.62732e-05
3.2075e-07
9.6106e-05
3.23776e-07
9.59371e-05
3.27041e-07
9.57663e-05
3.30563e-07
9.55936e-05
3.34368e-07
9.54187e-05
3.3848e-07
9.52416e-05
3.42919e-07
9.5062e-05
3.47708e-07
9.48797e-05
3.52863e-07
9.46946e-05
3.58401e-07
9.45064e-05
3.64342e-07
9.43149e-05
3.70702e-07
9.41199e-05
3.77503e-07
9.39212e-05
3.84766e-07
9.37185e-05
3.92515e-07
9.35115e-05
4.00782e-07
9.32999e-05
4.09602e-07
9.30835e-05
4.19014e-07
9.2862e-05
4.2907e-07
9.26348e-05
4.39826e-07
9.24018e-05
4.5135e-07
9.21623e-05
4.63722e-07
9.1916e-05
4.77033e-07
9.16623e-05
4.91391e-07
9.14006e-05
5.06922e-07
9.11303e-05
5.23773e-07
9.08505e-05
5.42115e-07
9.05604e-05
5.62148e-07
9.0259e-05
5.84106e-07
8.99452e-05
6.08265e-07
8.96177e-05
6.34952e-07
8.9275e-05
6.64555e-07
8.89154e-05
6.97538e-07
8.85369e-05
7.34458e-07
8.81371e-05
7.7599e-07
8.77133e-05
8.2296e-07
8.72623e-05
8.76381e-07
8.678e-05
9.37512e-07
8.62619e-05
1.00793e-06
8.57023e-05
1.08965e-06
8.50943e-05
1.18523e-06
8.44292e-05
1.29801e-06
8.36966e-05
1.43237e-06
8.28829e-05
1.59416e-06
8.1971e-05
1.79129e-06
8.09389e-05
2.03462e-06
7.97576e-05
2.33921e-06
7.83892e-05
2.72626e-06
7.67834e-05
3.22583e-06
7.48737e-05
3.88069e-06
7.25734e-05
4.75126e-06
6.97745e-05
5.92016e-06
6.63578e-05
7.49326e-06
6.22384e-05
9.5931e-06
5.75477e-05
1.22927e-05
1.51824e-05
5.35955e-05
0.000106572
1.16656e-08
0.000106561
3.05186e-08
0.00010654
6.06721e-08
0.000106503
1.05523e-07
0.000106444
1.6531e-07
0.000106361
2.35665e-07
0.000106252
3.08737e-07
0.000106119
3.75807e-07
0.000105967
4.30013e-07
0.000105801
4.68e-07
0.000105628
4.90066e-07
0.00010545
4.99156e-07
0.000105273
4.99413e-07
0.000105097
4.94894e-07
0.000104923
4.88805e-07
0.000104751
4.83217e-07
0.000104581
4.79178e-07
0.000104411
4.76995e-07
0.000104242
4.76534e-07
0.000104072
4.77471e-07
0.000103902
4.79457e-07
0.00010373
4.8219e-07
0.000103558
4.85462e-07
0.000103384
4.89143e-07
0.000103209
4.93168e-07
0.000103032
4.97519e-07
0.000102854
5.02211e-07
0.000102674
5.07269e-07
0.000102491
5.12732e-07
0.000102307
5.18633e-07
0.000102121
5.25011e-07
0.000101932
5.31896e-07
0.00010174
5.3932e-07
0.000101546
5.47309e-07
0.000101348
5.55896e-07
0.000101147
5.65101e-07
0.000100943
5.74955e-07
0.000100735
5.85486e-07
0.000100523
5.9673e-07
0.000100307
6.08726e-07
0.000100086
6.21518e-07
9.98606e-05
6.35161e-07
9.96299e-05
6.49717e-07
9.93937e-05
6.65263e-07
9.91516e-05
6.81886e-07
9.89033e-05
6.9969e-07
9.86482e-05
7.18794e-07
9.83859e-05
7.39342e-07
9.81158e-05
7.61496e-07
9.78373e-05
7.85448e-07
9.75497e-05
8.11421e-07
9.72521e-05
8.39675e-07
9.69437e-05
8.70513e-07
9.66235e-05
9.04288e-07
9.62904e-05
9.4142e-07
9.59429e-05
9.824e-07
9.55797e-05
1.02781e-06
9.51989e-05
1.07834e-06
9.47985e-05
1.13483e-06
9.43762e-05
1.19828e-06
9.39293e-05
1.26991e-06
9.34545e-05
1.35121e-06
9.2948e-05
1.44402e-06
9.24053e-05
1.55063e-06
9.1821e-05
1.67393e-06
9.11886e-05
1.81757e-06
9.05004e-05
1.98624e-06
8.97467e-05
2.18602e-06
8.8916e-05
2.42487e-06
8.7994e-05
2.71333e-06
8.69632e-05
3.06546e-06
8.58022e-05
3.50017e-06
8.44855e-05
4.04294e-06
8.29834e-05
4.72796e-06
8.12637e-05
5.60035e-06
7.92976e-05
6.71735e-06
7.70726e-05
8.14521e-06
7.46209e-05
9.94498e-06
7.20808e-05
1.21332e-05
6.98067e-05
1.45668e-05
1.66378e-05
6.83513e-05
0.000114037
1.58752e-08
0.000114026
4.17303e-08
0.000114003
8.29496e-08
0.000113964
1.44324e-07
0.000113904
2.26233e-07
0.000113816
3.22785e-07
0.000113702
4.23264e-07
0.000113562
5.15718e-07
0.000113401
5.90688e-07
0.000113226
6.43488e-07
0.000113041
6.74429e-07
0.000112853
6.87474e-07
0.000112664
6.88264e-07
0.000112477
6.8236e-07
0.000112291
6.74162e-07
0.000112108
6.66546e-07
0.000111926
6.60983e-07
0.000111745
6.57925e-07
0.000111565
6.57213e-07
0.000111384
6.58419e-07
0.000111202
6.61076e-07
0.00011102
6.64775e-07
0.000110836
6.69229e-07
0.000110651
6.7426e-07
0.000110464
6.79777e-07
0.000110276
6.85759e-07
0.000110086
6.92214e-07
0.000109894
6.99184e-07
0.0001097
7.06712e-07
0.000109504
7.14848e-07
0.000109305
7.2364e-07
0.000109104
7.3313e-07
0.0001089
7.43359e-07
0.000108693
7.54367e-07
0.000108483
7.66187e-07
0.000108269
7.78857e-07
0.000108051
7.92415e-07
0.00010783
8.06899e-07
0.000107604
8.22358e-07
0.000107374
8.38842e-07
0.000107139
8.56413e-07
0.000106899
8.75145e-07
0.000106654
8.95123e-07
0.000106403
9.16448e-07
0.000106145
9.3924e-07
0.000105881
9.63637e-07
0.00010561
9.89803e-07
0.000105332
1.01793e-06
0.000105045
1.04823e-06
0.00010475
1.08097e-06
0.000104445
1.11645e-06
0.000104129
1.155e-06
0.000103803
1.19704e-06
0.000103464
1.24304e-06
0.000103112
1.29355e-06
0.000102745
1.34921e-06
0.000102362
1.41081e-06
0.000101961
1.47923e-06
0.00010154
1.55558e-06
0.000101098
1.64114e-06
0.00010063
1.73749e-06
0.000100135
1.84652e-06
9.96081e-05
1.97057e-06
9.90462e-05
2.11251e-06
9.84443e-05
2.27589e-06
9.77967e-05
2.46517e-06
9.7097e-05
2.68597e-06
9.63376e-05
2.9454e-06
9.55098e-05
3.2526e-06
9.46039e-05
3.61925e-06
9.3609e-05
4.06043e-06
9.25136e-05
4.59552e-06
9.13073e-05
5.24921e-06
8.9983e-05
6.05228e-06
8.85419e-05
7.04151e-06
8.70022e-05
8.25703e-06
8.54135e-05
9.73386e-06
8.38767e-05
1.14818e-05
8.25654e-05
1.34445e-05
8.17111e-05
1.54212e-05
1.69493e-05
8.13995e-05
0.000122025
2.02568e-08
0.000122013
5.34025e-08
0.00012199
1.06059e-07
0.00012195
1.84532e-07
0.000121886
2.89415e-07
0.000121796
4.13308e-07
0.000121677
5.42595e-07
0.00012153
6.61969e-07
0.000121362
7.5922e-07
0.000121177
8.28189e-07
0.000120982
8.69105e-07
0.000120783
8.86912e-07
0.000120583
8.8875e-07
0.000120383
8.81726e-07
0.000120186
8.71513e-07
0.000119991
8.61848e-07
0.000119797
8.5468e-07
0.000119604
8.50648e-07
0.000119412
8.49592e-07
0.000119219
8.51001e-07
0.000119026
8.54283e-07
0.000118832
8.58935e-07
0.000118636
8.64589e-07
0.00011844
8.71011e-07
0.000118241
8.78088e-07
0.000118041
8.8578e-07
0.000117839
8.94103e-07
0.000117636
9.03099e-07
0.000117429
9.12824e-07
0.000117221
9.23336e-07
0.00011701
9.34694e-07
0.000116796
9.46952e-07
0.000116579
9.60161e-07
0.000116359
9.74368e-07
0.000116136
9.89616e-07
0.000115909
1.00595e-06
0.000115678
1.02342e-06
0.000115443
1.04207e-06
0.000115203
1.06197e-06
0.000114959
1.08317e-06
0.000114709
1.10576e-06
0.000114455
1.12983e-06
0.000114194
1.15548e-06
0.000113928
1.18285e-06
0.000113655
1.21207e-06
0.000113375
1.24334e-06
0.000113088
1.27684e-06
0.000112793
1.31282e-06
0.00011249
1.35155e-06
0.000112178
1.39336e-06
0.000111856
1.43861e-06
0.000111523
1.48773e-06
0.000111179
1.54123e-06
0.000110822
1.59967e-06
0.000110452
1.66374e-06
0.000110067
1.73422e-06
0.000109666
1.81205e-06
0.000109247
1.89831e-06
0.000108808
1.99431e-06
0.000108347
2.10158e-06
0.000107863
2.22197e-06
0.000107352
2.35768e-06
0.000106811
2.51138e-06
0.000106237
2.68633e-06
0.000105627
2.88649e-06
0.000104975
3.11672e-06
0.000104278
3.38301e-06
0.000103531
3.69277e-06
0.000102728
4.05518e-06
0.000101866
4.48158e-06
0.00010094
4.98592e-06
9.99505e-05
5.58517e-06
9.89003e-05
6.29941e-06
9.78011e-05
7.15145e-06
9.66777e-05
8.165e-06
9.55746e-05
9.36013e-06
9.45645e-05
1.0744e-05
9.37527e-05
1.22935e-05
9.32691e-05
1.39281e-05
9.32177e-05
1.54725e-05
1.66291e-05
9.3538e-05
0.000130572
2.48174e-08
0.00013056
6.54715e-08
0.000130536
1.29819e-07
0.000130495
2.25779e-07
0.00013043
3.54258e-07
0.000130337
5.06426e-07
0.000130214
6.65773e-07
0.000130062
8.13566e-07
0.000129887
9.34711e-07
0.000129693
1.02141e-06
0.000129489
1.07366e-06
0.000129279
1.09729e-06
0.000129066
1.10093e-06
0.000128855
1.09324e-06
0.000128645
1.08121e-06
0.000128437
1.06954e-06
0.000128231
1.0607e-06
0.000128027
1.05558e-06
0.000127822
1.05406e-06
0.000127618
1.05555e-06
0.000127412
1.05939e-06
0.000127206
1.06495e-06
0.000126999
1.07179e-06
0.000126791
1.07963e-06
0.00012658
1.08832e-06
0.000126368
1.0978e-06
0.000126154
1.10809e-06
0.000125938
1.11923e-06
0.00012572
1.13128e-06
0.000125499
1.14431e-06
0.000125275
1.1584e-06
0.000125048
1.17359e-06
0.000124819
1.18995e-06
0.000124586
1.20754e-06
0.000124349
1.2264e-06
0.000124108
1.2466e-06
0.000123863
1.26818e-06
0.000123614
1.2912e-06
0.00012336
1.31574e-06
0.000123102
1.34188e-06
0.000122838
1.3697e-06
0.000122568
1.39931e-06
0.000122293
1.43086e-06
0.000122011
1.46447e-06
0.000121723
1.50035e-06
0.000121428
1.53868e-06
0.000121125
1.57972e-06
0.000120814
1.62375e-06
0.000120494
1.67109e-06
0.000120166
1.72213e-06
0.000119827
1.77728e-06
0.000119478
1.83706e-06
0.000119117
1.90205e-06
0.000118744
1.97292e-06
0.000118357
2.05044e-06
0.000117956
2.13553e-06
0.000117538
2.22924e-06
0.000117104
2.33279e-06
0.000116651
2.44765e-06
0.000116177
2.5755e-06
0.00011568
2.71836e-06
0.000115159
2.87862e-06
0.000114612
3.0591e-06
0.000114035
3.2632e-06
0.000113426
3.49494e-06
0.000112784
3.75916e-06
0.000112105
4.06166e-06
0.000111389
4.40936e-06
0.000110633
4.81049e-06
0.00010984
5.27477e-06
0.000109013
5.81346e-06
0.000108158
6.43928e-06
0.000107292
7.16595e-06
0.000106436
8.00699e-06
0.000105628
8.97333e-06
0.000104919
1.00689e-05
0.00010438
1.12833e-05
0.000104093
1.25807e-05
0.000104135
1.38854e-05
0.000104538
1.50698e-05
1.59568e-05
0.00010521
0.000139718
2.95507e-08
0.000139706
7.78748e-08
0.000139681
1.54032e-07
0.00013964
2.67647e-07
0.000139574
4.20061e-07
0.000139479
6.01158e-07
0.000139353
7.91618e-07
0.000139198
9.69265e-07
0.000139016
1.116e-06
0.000138815
1.22218e-06
0.000138602
1.28741e-06
0.000138381
1.31823e-06
0.000138157
1.32468e-06
0.000137933
1.31698e-06
0.000137711
1.3035e-06
0.000137491
1.28992e-06
0.000137272
1.27937e-06
0.000137055
1.27304e-06
0.000136838
1.27089e-06
0.000136621
1.27234e-06
0.000136404
1.2766e-06
0.000136186
1.283e-06
0.000135966
1.29099e-06
0.000135746
1.30025e-06
0.000135524
1.31059e-06
0.000135299
1.32193e-06
0.000135073
1.33428e-06
0.000134845
1.34767e-06
0.000134614
1.36219e-06
0.00013438
1.37789e-06
0.000134144
1.39485e-06
0.000133904
1.41314e-06
0.000133662
1.43282e-06
0.000133415
1.45397e-06
0.000133165
1.47663e-06
0.000132911
1.50086e-06
0.000132652
1.52674e-06
0.000132389
1.55431e-06
0.000132121
1.58368e-06
0.000131848
1.61492e-06
0.00013157
1.64815e-06
0.000131285
1.68348e-06
0.000130995
1.72107e-06
0.000130699
1.76109e-06
0.000130395
1.80375e-06
0.000130085
1.84928e-06
0.000129766
1.89796e-06
0.00012944
1.9501e-06
0.000129105
2.00609e-06
0.000128761
2.06634e-06
0.000128407
2.13135e-06
0.000128042
2.20166e-06
0.000127666
2.27793e-06
0.000127278
2.3609e-06
0.000126877
2.45142e-06
0.000126462
2.55048e-06
0.000126032
2.6592e-06
0.000125586
2.77891e-06
0.000125123
2.91113e-06
0.000124641
3.05762e-06
0.000124139
3.22043e-06
0.000123615
3.40198e-06
0.000123069
3.60503e-06
0.0001225
3.83286e-06
0.000121905
4.08923e-06
0.000121286
4.37856e-06
0.000120642
4.7059e-06
0.000119974
5.07707e-06
0.000119286
5.49863e-06
0.000118583
5.97788e-06
0.000117874
6.52259e-06
0.000117172
7.14073e-06
0.000116499
7.83959e-06
0.000115881
8.62454e-06
0.000115357
9.49686e-06
0.000114976
1.04505e-05
0.000114792
1.14672e-05
0.000114861
1.25113e-05
0.000115223
1.35236e-05
0.000115873
1.44197e-05
1.50987e-05
0.000116731
0.000149505
3.44501e-08
0.000149492
9.05416e-08
0.000149468
1.78479e-07
0.000149426
3.09672e-07
0.00014936
4.86054e-07
0.000149264
6.96421e-07
0.000149137
9.18801e-07
0.000148979
1.12763e-06
0.000148793
1.30168e-06
0.000148586
1.4293e-06
0.000148364
1.50941e-06
0.000148133
1.5491e-06
0.000147898
1.55966e-06
0.000147662
1.55284e-06
0.000147427
1.53842e-06
0.000147194
1.52316e-06
0.000146963
1.5109e-06
0.000146733
1.50322e-06
0.000146503
1.50028e-06
0.000146274
1.50149e-06
0.000146045
1.50603e-06
0.000145814
1.51314e-06
0.000145583
1.52223e-06
0.000145351
1.53289e-06
0.000145116
1.54489e-06
0.00014488
1.55815e-06
0.000144642
1.57264e-06
0.000144401
1.5884e-06
0.000144158
1.6055e-06
0.000143912
1.62401e-06
0.000143662
1.644e-06
0.00014341
1.66554e-06
0.000143154
1.68872e-06
0.000142895
1.71358e-06
0.000142631
1.7402e-06
0.000142363
1.76863e-06
0.000142091
1.79895e-06
0.000141814
1.83124e-06
0.000141532
1.86557e-06
0.000141245
1.90205e-06
0.000140952
1.94079e-06
0.000140654
1.98195e-06
0.000140349
2.02567e-06
0.000140038
2.07216e-06
0.00013972
2.12163e-06
0.000139395
2.17436e-06
0.000139063
2.23064e-06
0.000138722
2.29083e-06
0.000138373
2.35533e-06
0.000138014
2.42459e-06
0.000137647
2.49914e-06
0.000137269
2.57959e-06
0.00013688
2.66662e-06
0.00013648
2.761e-06
0.000136068
2.86364e-06
0.000135643
2.97553e-06
0.000135204
3.09786e-06
0.000134751
3.23193e-06
0.000134283
3.37926e-06
0.000133799
3.54157e-06
0.000133299
3.72083e-06
0.000132781
3.91928e-06
0.000132247
4.13947e-06
0.000131695
4.38428e-06
0.000131128
4.65694e-06
0.000130545
4.96109e-06
0.00012995
5.30069e-06
0.000129347
5.68006e-06
0.000128742
6.10374e-06
0.000128144
6.57632e-06
0.000127564
7.10212e-06
0.00012702
7.68473e-06
0.000126534
8.32624e-06
0.000126132
9.02615e-06
0.000125849
9.77987e-06
0.000125723
1.05767e-05
0.000125792
1.13976e-05
0.000126091
1.22126e-05
0.000126635
1.29798e-05
0.000127408
1.3647e-05
1.41578e-05
0.000128349
0.000159977
3.95143e-08
0.000159964
1.03407e-07
0.00015994
2.02957e-07
0.000159898
3.51408e-07
0.000159833
5.51471e-07
0.000159738
7.91107e-07
0.000159611
1.04594e-06
0.000159451
1.28711e-06
0.000159263
1.49021e-06
0.000159051
1.64135e-06
0.000158822
1.7385e-06
0.000158582
1.78902e-06
0.000158336
1.80528e-06
0.000158088
1.80049e-06
0.000157841
1.78582e-06
0.000157595
1.76921e-06
0.000157351
1.7553e-06
0.000157108
1.74618e-06
0.000156866
1.74225e-06
0.000156624
1.74302e-06
0.000156383
1.74765e-06
0.00015614
1.75533e-06
0.000155897
1.76541e-06
0.000155653
1.77742e-06
0.000155406
1.7911e-06
0.000155158
1.80631e-06
0.000154908
1.82302e-06
0.000154655
1.84125e-06
0.0001544
1.86105e-06
0.000154141
1.88249e-06
0.000153879
1.90565e-06
0.000153614
1.9306e-06
0.000153346
1.9574e-06
0.000153073
1.98613e-06
0.000152797
2.01684e-06
0.000152516
2.0496e-06
0.00015223
2.08448e-06
0.00015194
2.12157e-06
0.000151644
2.16095e-06
0.000151344
2.20273e-06
0.000151037
2.24705e-06
0.000150725
2.29403e-06
0.000150407
2.34388e-06
0.000150082
2.39678e-06
0.000149751
2.45299e-06
0.000149413
2.51277e-06
0.000149067
2.57646e-06
0.000148713
2.64441e-06
0.000148352
2.71706e-06
0.000147981
2.79488e-06
0.000147602
2.87841e-06
0.000147213
2.96827e-06
0.000146815
3.06515e-06
0.000146406
3.16985e-06
0.000145986
3.28324e-06
0.000145556
3.40632e-06
0.000145113
3.54021e-06
0.000144659
3.68617e-06
0.000144193
3.8456e-06
0.000143714
4.02008e-06
0.000143224
4.21136e-06
0.000142722
4.42137e-06
0.000142209
4.65225e-06
0.000141687
4.90631e-06
0.000141158
5.18606e-06
0.000140625
5.49412e-06
0.000140092
5.83322e-06
0.000139566
6.20603e-06
0.000139055
6.61508e-06
0.000138569
7.06247e-06
0.000138121
7.5496e-06
0.000137729
8.0767e-06
0.000137413
8.64229e-06
0.000137197
9.24243e-06
0.000137107
9.86988e-06
0.00013717
1.05131e-05
0.000137413
1.11554e-05
0.000137851
1.17743e-05
0.000138489
1.2342e-05
0.000139308
1.28272e-05
1.31989e-05
0.000140267
0.000171183
4.47381e-08
0.00017117
1.16421e-07
0.000171146
2.27297e-07
0.000171104
3.92474e-07
0.00017104
6.15637e-07
0.000170947
8.84214e-07
0.000170821
1.17172e-06
0.000170662
1.44619e-06
0.000170473
1.68001e-06
0.000170257
1.85682e-06
0.000170022
1.97334e-06
0.000169774
2.0369e-06
0.000169519
2.06072e-06
0.00016926
2.05932e-06
0.000169001
2.04529e-06
0.000168742
2.02779e-06
0.000168485
2.01238e-06
0.000168229
2.00176e-06
0.000167975
1.99667e-06
0.000167721
1.99677e-06
0.000167468
2.00129e-06
0.000167214
2.00937e-06
0.000166959
2.02032e-06
0.000166703
2.03362e-06
0.000166445
2.04895e-06
0.000166185
2.06614e-06
0.000165923
2.08513e-06
0.000165658
2.1059e-06
0.000165391
2.12851e-06
0.00016512
2.15301e-06
0.000164846
2.17946e-06
0.000164569
2.20792e-06
0.000164288
2.23847e-06
0.000164003
2.27116e-06
0.000163714
2.30606e-06
0.00016342
2.34323e-06
0.000163122
2.38273e-06
0.000162819
2.42466e-06
0.000162511
2.46911e-06
0.000162197
2.51617e-06
0.000161878
2.566e-06
0.000161554
2.61873e-06
0.000161223
2.67456e-06
0.000160886
2.73369e-06
0.000160543
2.79637e-06
0.000160192
2.86289e-06
0.000159835
2.93358e-06
0.000159471
3.0088e-06
0.000159099
3.08899e-06
0.000158719
3.17462e-06
0.000158331
3.26623e-06
0.000157935
3.36442e-06
0.000157531
3.46987e-06
0.000157117
3.58331e-06
0.000156695
3.7056e-06
0.000156263
3.83764e-06
0.000155823
3.98046e-06
0.000155374
4.13517e-06
0.000154917
4.30298e-06
0.000154452
4.48524e-06
0.00015398
4.68336e-06
0.000153502
4.89886e-06
0.000153021
5.13335e-06
0.000152539
5.38846e-06
0.000152059
5.66586e-06
0.000151586
5.96715e-06
0.000151126
6.29377e-06
0.000150685
6.64692e-06
0.000150272
7.02737e-06
0.0001499
7.43525e-06
0.000149579
7.86984e-06
0.000149327
8.32919e-06
0.000149159
8.80984e-06
0.000149095
9.30641e-06
0.000149154
9.81119e-06
0.000149353
1.03138e-05
0.000149707
1.08012e-05
0.000150224
1.12575e-05
0.000150901
1.16651e-05
0.000151723
1.20056e-05
1.22624e-05
0.000152659
0.000183174
5.01259e-08
0.000183161
1.29555e-07
0.000183136
2.5139e-07
0.000183096
4.32604e-07
0.000183034
6.78039e-07
0.000182943
9.7493e-07
0.00018282
1.29505e-06
0.000182663
1.60353e-06
0.000182473
1.86957e-06
0.000182256
2.07418e-06
0.000182016
2.2125e-06
0.000181762
2.29146e-06
0.000181498
2.32487e-06
0.000181229
2.32845e-06
0.000180958
2.31614e-06
0.000180687
2.29836e-06
0.000180418
2.28171e-06
0.00018015
2.26959e-06
0.000179884
2.2632e-06
0.000179618
2.26245e-06
0.000179353
2.26664e-06
0.000179087
2.27495e-06
0.000178821
2.28663e-06
0.000178553
2.30113e-06
0.000178284
2.31808e-06
0.000178013
2.33726e-06
0.000177739
2.35855e-06
0.000177463
2.38194e-06
0.000177185
2.40743e-06
0.000176903
2.43506e-06
0.000176617
2.46488e-06
0.000176328
2.49695e-06
0.000176035
2.53132e-06
0.000175738
2.56803e-06
0.000175437
2.60716e-06
0.000175132
2.64874e-06
0.000174822
2.69286e-06
0.000174507
2.73959e-06
0.000174187
2.78901e-06
0.000173862
2.84124e-06
0.000173531
2.8964e-06
0.000173195
2.95466e-06
0.000172854
3.01618e-06
0.000172506
3.08118e-06
0.000172153
3.1499e-06
0.000171793
3.22263e-06
0.000171427
3.29968e-06
0.000171054
3.38142e-06
0.000170675
3.46825e-06
0.000170289
3.56063e-06
0.000169896
3.65906e-06
0.000169497
3.76411e-06
0.00016909
3.87639e-06
0.000168677
3.99657e-06
0.000168257
4.12539e-06
0.000167831
4.26364e-06
0.000167399
4.41218e-06
0.000166963
4.57193e-06
0.000166522
4.74384e-06
0.000166078
4.92892e-06
0.000165633
5.12822e-06
0.000165189
5.34276e-06
0.000164749
5.57357e-06
0.000164316
5.82159e-06
0.000163894
6.08766e-06
0.000163489
6.37242e-06
0.000163106
6.67623e-06
0.000162754
6.99906e-06
0.000162441
7.34037e-06
0.000162178
7.69896e-06
0.000161975
8.07281e-06
0.000161845
8.45887e-06
0.000161802
8.85295e-06
0.000161859
9.24953e-06
0.000162028
9.64168e-06
0.000162321
1.00211e-05
0.000162744
1.03781e-05
0.0001633
1.07021e-05
0.000163982
1.09822e-05
0.00016478
1.12081e-05
1.13709e-05
0.000165671
0.000196004
5.56852e-08
0.000195991
1.4282e-07
0.000195967
2.75213e-07
0.000195928
4.71687e-07
0.000195868
7.38414e-07
0.00019578
1.06277e-06
0.00019566
1.41516e-06
0.000195505
1.75809e-06
0.000195317
2.05766e-06
0.000195099
2.29204e-06
0.000194857
2.45451e-06
0.000194597
2.55128e-06
0.000194326
2.59646e-06
0.000194048
2.60675e-06
0.000193766
2.59738e-06
0.000193485
2.5801e-06
0.000193204
2.56258e-06
0.000192924
2.54907e-06
0.000192646
2.54132e-06
0.000192369
2.53955e-06
0.000192092
2.54324e-06
0.000191816
2.5516e-06
0.000191539
2.56388e-06
0.00019126
2.57949e-06
0.00019098
2.59799e-06
0.000190698
2.61913e-06
0.000190414
2.64275e-06
0.000190127
2.66877e-06
0.000189838
2.69719e-06
0.000189545
2.728e-06
0.000189248
2.76125e-06
0.000188948
2.79695e-06
0.000188645
2.83515e-06
0.000188337
2.87588e-06
0.000188025
2.91919e-06
0.000187708
2.96513e-06
0.000187387
3.01375e-06
0.000187062
3.06512e-06
0.000186732
3.11932e-06
0.000186396
3.17646e-06
0.000186056
3.23665e-06
0.000185711
3.30003e-06
0.00018536
3.36679e-06
0.000185004
3.4371e-06
0.000184643
3.51121e-06
0.000184276
3.58938e-06
0.000183904
3.6719e-06
0.000183526
3.75911e-06
0.000183143
3.85138e-06
0.000182755
3.94911e-06
0.000182361
4.05275e-06
0.000181962
4.16279e-06
0.000181559
4.27976e-06
0.000181151
4.40421e-06
0.00018074
4.53674e-06
0.000180326
4.67799e-06
0.000179909
4.8286e-06
0.000179492
4.98923e-06
0.000179075
5.16055e-06
0.000178661
5.34322e-06
0.000178251
5.53785e-06
0.000177849
5.745e-06
0.000177458
5.96511e-06
0.000177081
6.1985e-06
0.000176723
6.44528e-06
0.00017639
6.7053e-06
0.000176088
6.9781e-06
0.000175825
7.2628e-06
0.000175607
7.55802e-06
0.000175444
7.86183e-06
0.000175345
8.1716e-06
0.00017532
8.48401e-06
0.000175378
8.79495e-06
0.000175528
9.09952e-06
0.000175778
9.39209e-06
0.000176132
9.66642e-06
0.000176595
9.9158e-06
0.000177163
1.01334e-05
0.000177833
1.03128e-05
0.000178593
1.04481e-05
1.0535e-05
0.000179429
0.000209734
6.14332e-08
0.00020972
1.56252e-07
0.000209697
2.98825e-07
0.000209658
5.09779e-07
0.0002096
7.96765e-07
0.000209515
1.1476e-06
0.000209399
1.53169e-06
0.000209248
1.90925e-06
0.000209062
2.24333e-06
0.000208845
2.50922e-06
0.000208601
2.69804e-06
0.000208338
2.81494e-06
0.00020806
2.87404e-06
0.000207774
2.89284e-06
0.000207484
2.88778e-06
0.000207192
2.87189e-06
0.0002069
2.85403e-06
0.00020661
2.83937e-06
0.000206321
2.83028e-06
0.000206033
2.82741e-06
0.000205746
2.83045e-06
0.000205459
2.83872e-06
0.000205171
2.85147e-06
0.000204883
2.86809e-06
0.000204593
2.88808e-06
0.000204301
2.91114e-06
0.000204006
2.93706e-06
0.000203709
2.96571e-06
0.00020341
2.99705e-06
0.000203107
3.03104e-06
0.0002028
3.06768e-06
0.00020249
3.10697e-06
0.000202176
3.14894e-06
0.000201859
3.1936e-06
0.000201537
3.24097e-06
0.000201211
3.29108e-06
0.000200881
3.34398e-06
0.000200546
3.39972e-06
0.000200207
3.45837e-06
0.000199863
3.52e-06
0.000199515
3.58473e-06
0.000199163
3.65268e-06
0.000198806
3.724e-06
0.000198444
3.79886e-06
0.000198077
3.87747e-06
0.000197707
3.96006e-06
0.000197332
4.04688e-06
0.000196953
4.13821e-06
0.00019657
4.23438e-06
0.000196183
4.33573e-06
0.000195793
4.4426e-06
0.000195401
4.55541e-06
0.000195006
4.67454e-06
0.00019461
4.80042e-06
0.000194213
4.93349e-06
0.000193817
5.07416e-06
0.000193423
5.22287e-06
0.000193032
5.38e-06
0.000192646
5.54592e-06
0.000192269
5.72093e-06
0.000191901
5.90523e-06
0.000191547
6.09895e-06
0.00019121
6.30204e-06
0.000190895
6.51429e-06
0.000190605
6.73526e-06
0.000190346
6.96425e-06
0.000190124
7.20025e-06
0.000189944
7.44189e-06
0.000189815
7.68739e-06
0.000189742
7.93455e-06
0.000189733
8.18069e-06
0.000189795
8.42271e-06
0.000189933
8.65702e-06
0.000190152
8.87969e-06
0.000190458
9.08645e-06
0.000190852
9.27289e-06
0.000191333
9.43457e-06
0.000191899
9.56728e-06
0.000192544
9.66726e-06
0.000193261
9.73146e-06
9.75782e-06
0.000194038
0.000224425
6.739e-08
0.000224411
1.69914e-07
0.000224387
3.22357e-07
0.00022435
5.47091e-07
0.000224294
8.53337e-07
0.000224212
1.22962e-06
0.000224098
1.64471e-06
0.000223951
2.0568e-06
0.000223768
2.42607e-06
0.000223553
2.72484e-06
0.000223309
2.94189e-06
0.000223043
3.08103e-06
0.000222761
3.15612e-06
0.000222468
3.18522e-06
0.00022217
3.18589e-06
0.00022187
3.17242e-06
0.000221569
3.15488e-06
0.000221269
3.13941e-06
0.00022097
3.12913e-06
0.000220672
3.12517e-06
0.000220375
3.1275e-06
0.000220078
3.13557e-06
0.000219781
3.14869e-06
0.000219483
3.16621e-06
0.000219183
3.18761e-06
0.000218882
3.21252e-06
0.000218578
3.24067e-06
0.000218272
3.2719e-06
0.000217963
3.30609e-06
0.000217651
3.34317e-06
0.000217336
3.38311e-06
0.000217017
3.42588e-06
0.000216694
3.47146e-06
0.000216368
3.51984e-06
0.000216038
3.57102e-06
0.000215704
3.62501e-06
0.000215366
3.68184e-06
0.000215024
3.74152e-06
0.000214679
3.80411e-06
0.000214329
3.86966e-06
0.000213975
3.93826e-06
0.000213618
4.01e-06
0.000213257
4.085e-06
0.000212893
4.16341e-06
0.000212525
4.24538e-06
0.000212154
4.33109e-06
0.00021178
4.42075e-06
0.000211403
4.51459e-06
0.000211025
4.61283e-06
0.000210645
4.71573e-06
0.000210264
4.82356e-06
0.000209883
4.93658e-06
0.000209502
5.05505e-06
0.000209124
5.17925e-06
0.000208748
5.30942e-06
0.000208376
5.44577e-06
0.00020801
5.58851e-06
0.000207653
5.73775e-06
0.000207305
5.89358e-06
0.00020697
6.05596e-06
0.00020665
6.22478e-06
0.00020635
6.39979e-06
0.000206071
6.58056e-06
0.000205819
6.76652e-06
0.000205597
6.95686e-06
0.000205411
7.15055e-06
0.000205265
7.34631e-06
0.000205164
7.54259e-06
0.000205114
7.73752e-06
0.00020512
7.929e-06
0.000205186
8.11463e-06
0.000205317
8.29175e-06
0.000205516
8.45753e-06
0.000205787
8.609e-06
0.00020613
8.74315e-06
0.000206546
8.857e-06
0.000207033
8.94778e-06
0.000207587
9.01301e-06
0.000208204
9.05064e-06
0.000208876
9.0592e-06
9.03788e-06
0.000209596
0.000240145
7.35726e-08
0.000240131
1.83878e-07
0.000240107
3.45986e-07
0.00024007
5.83927e-07
0.000240015
9.08561e-07
0.000239935
1.30932e-06
0.000239825
1.75462e-06
0.000239681
2.20091e-06
0.000239502
2.6057e-06
0.000239288
2.93834e-06
0.000239045
3.18511e-06
0.000238778
3.34829e-06
0.000238493
3.44121e-06
0.000238196
3.48231e-06
0.000237891
3.49013e-06
0.000237584
3.48017e-06
0.000237275
3.46371e-06
0.000236966
3.44792e-06
0.000236659
3.43673e-06
0.000236352
3.43179e-06
0.000236046
3.43342e-06
0.00023574
3.44125e-06
0.000235435
3.45465e-06
0.000235128
3.47297e-06
0.00023482
3.49568e-06
0.00023451
3.52233e-06
0.000234198
3.55261e-06
0.000233884
3.58628e-06
0.000233566
3.62319e-06
0.000233246
3.66321e-06
0.000232923
3.70626e-06
0.000232597
3.75227e-06
0.000232267
3.80119e-06
0.000231934
3.85297e-06
0.000231598
3.90759e-06
0.000231258
3.96502e-06
0.000230914
4.02525e-06
0.000230567
4.08828e-06
0.000230217
4.15413e-06
0.000229864
4.22283e-06
0.000229508
4.29443e-06
0.000229149
4.36897e-06
0.000228787
4.44655e-06
0.000228424
4.52726e-06
0.000228058
4.6112e-06
0.00022769
4.6985e-06
0.000227322
4.7893e-06
0.000226953
4.88373e-06
0.000226584
4.98194e-06
0.000226215
5.08409e-06
0.000225849
5.19033e-06
0.000225484
5.30079e-06
0.000225124
5.41559e-06
0.000224768
5.53484e-06
0.000224419
5.6586e-06
0.000224078
5.78689e-06
0.000223747
5.91969e-06
0.000223428
6.05689e-06
0.000223123
6.19832e-06
0.000222835
6.34371e-06
0.000222567
6.49266e-06
0.000222322
6.64468e-06
0.000222104
6.79909e-06
0.000221915
6.9551e-06
0.00022176
7.11172e-06
0.000221643
7.2678e-06
0.000221567
7.422e-06
0.000221537
7.57281e-06
0.000221556
7.71852e-06
0.000221628
7.8573e-06
0.000221755
7.98718e-06
0.000221941
8.10608e-06
0.000222187
8.21192e-06
0.000222493
8.30259e-06
0.00022286
8.37608e-06
0.000223287
8.43054e-06
0.00022377
8.46433e-06
0.000224307
8.4761e-06
0.000224893
8.46486e-06
0.000225522
8.43003e-06
8.3715e-06
0.000226188
0.000256966
7.9994e-08
0.000256951
1.98213e-07
0.000256928
3.69885e-07
0.000256891
6.20627e-07
0.000256836
9.6294e-07
0.000256758
1.3873e-06
0.000256651
1.862e-06
0.00025651
2.34201e-06
0.000256333
2.78232e-06
0.000256122
3.14939e-06
0.00025588
3.42697e-06
0.000255613
3.61559e-06