/*--------------------------------*- C++ -*----------------------------------*\
| =========                 |                                                 |
| \\      /  F ield         | OpenFOAM: The Open Source CFD Toolbox           |
|  \\    /   O peration     | Version:  4.1                                   |
|   \\  /    A nd           | Web:      www.OpenFOAM.org                      |
|    \\/     M anipulation  |                                                 |
\*---------------------------------------------------------------------------*/
FoamFile
{
    version     2.0;
    format      ascii;
    class       volVectorField;
    location    "1";
    object      U;
}
// * * * * * * * * * * * * * * * * * * * * * * * * * * * * * * * * * * * * * //

dimensions      [0 1 -1 0 0 0 0];

internalField   nonuniform List<vector> 
12013
(
(0.099999 3.7688e-07 0)
(0.0999929 9.93006e-07 0)
(0.0999786 2.01063e-06 0)
(0.0999519 3.56344e-06 0)
(0.0999074 5.68734e-06 0)
(0.0998405 8.26044e-06 0)
(0.0997488 1.10261e-05 0)
(0.0996329 1.36762e-05 0)
(0.0994963 1.59474e-05 0)
(0.0993442 1.76896e-05 0)
(0.0991824 1.88818e-05 0)
(0.0990157 1.96071e-05 0)
(0.0988479 2.00029e-05 0)
(0.0986812 2.02156e-05 0)
(0.0985166 2.03672e-05 0)
(0.0983541 2.0541e-05 0)
(0.0981932 2.07833e-05 0)
(0.0980334 2.11108e-05 0)
(0.097874 2.15219e-05 0)
(0.0977145 2.20057e-05 0)
(0.0975544 2.25493e-05 0)
(0.0973935 2.31414e-05 0)
(0.0972316 2.37744e-05 0)
(0.0970685 2.4443e-05 0)
(0.0969041 2.51463e-05 0)
(0.0967382 2.58846e-05 0)
(0.0965709 2.66604e-05 0)
(0.0964019 2.74767e-05 0)
(0.0962312 2.8337e-05 0)
(0.0960586 2.92459e-05 0)
(0.0958839 3.02071e-05 0)
(0.095707 3.12257e-05 0)
(0.0955277 3.23051e-05 0)
(0.0953458 3.34507e-05 0)
(0.0951612 3.46667e-05 0)
(0.0949736 3.59579e-05 0)
(0.0947827 3.733e-05 0)
(0.0945885 3.87886e-05 0)
(0.0943906 4.03393e-05 0)
(0.0941888 4.19898e-05 0)
(0.0939829 4.37471e-05 0)
(0.0937725 4.56207e-05 0)
(0.0935574 4.76204e-05 0)
(0.0933372 4.97572e-05 0)
(0.0931116 5.20448e-05 0)
(0.0928802 5.44983e-05 0)
(0.0926426 5.71351e-05 0)
(0.0923984 5.99759e-05 0)
(0.0921469 6.3044e-05 0)
(0.0918877 6.63672e-05 0)
(0.0916201 6.99776e-05 0)
(0.0913433 7.39127e-05 0)
(0.0910565 7.82166e-05 0)
(0.0907588 8.29421e-05 0)
(0.0904491 8.81504e-05 0)
(0.0901262 9.39157e-05 0)
(0.0897886 0.000100326 0)
(0.0894347 0.000107488 0)
(0.0890626 0.00011553 0)
(0.0886701 0.000124611 0)
(0.0882545 0.000134925 0)
(0.0878126 0.000146714 0)
(0.0873408 0.00016028 0)
(0.0868346 0.00017601 0)
(0.0862886 0.000194398 0)
(0.0856961 0.000216087 0)
(0.0850488 0.000241927 0)
(0.0843364 0.000273053 0)
(0.0835457 0.000311015 0)
(0.0826599 0.000357957 0)
(0.0816567 0.000416911 0)
(0.0805065 0.000492246 0)
(0.0791693 0.000590385 0)
(0.0775895 0.000720981 0)
(0.0756887 0.000898846 0)
(0.0733548 0.00114719 0)
(0.0704236 0.00150316 0)
(0.0666386 0.00202921 0)
(0.0616071 0.00284983 0)
(0.0548831 0.00431229 0)
(0.0474191 0.00798517 0)
(0.099999 1.14959e-06 0)
(0.099993 3.03794e-06 0)
(0.0999789 6.15556e-06 0)
(0.0999525 1.09135e-05 0)
(0.0999084 1.74247e-05 0)
(0.0998419 2.5317e-05 0)
(0.0997507 3.38036e-05 0)
(0.0996353 4.19386e-05 0)
(0.0994992 4.89141e-05 0)
(0.0993476 5.42671e-05 0)
(0.0991861 5.79333e-05 0)
(0.0990197 6.01655e-05 0)
(0.0988522 6.13855e-05 0)
(0.0986857 6.20421e-05 0)
(0.0985212 6.2509e-05 0)
(0.0983588 6.30433e-05 0)
(0.0981981 6.37869e-05 0)
(0.0980385 6.4791e-05 0)
(0.0978792 6.60511e-05 0)
(0.0977198 6.75344e-05 0)
(0.09756 6.9201e-05 0)
(0.0973993 7.10171e-05 0)
(0.0972375 7.29579e-05 0)
(0.0970746 7.50092e-05 0)
(0.0969104 7.71663e-05 0)
(0.0967448 7.94316e-05 0)
(0.0965777 8.18112e-05 0)
(0.096409 8.43157e-05 0)
(0.0962385 8.69558e-05 0)
(0.0960661 8.97443e-05 0)
(0.0958917 9.26941e-05 0)
(0.0957151 9.58186e-05 0)
(0.095536 9.9131e-05 0)
(0.0953544 0.000102646 0)
(0.0951701 0.000106376 0)
(0.0949827 0.000110338 0)
(0.0947922 0.000114547 0)
(0.0945983 0.00011902 0)
(0.0944007 0.000123777 0)
(0.0941992 0.000128839 0)
(0.0939936 0.000134229 0)
(0.0937836 0.000139974 0)
(0.0935689 0.000146105 0)
(0.0933491 0.000152657 0)
(0.093124 0.00015967 0)
(0.0928931 0.000167191 0)
(0.092656 0.000175273 0)
(0.0924123 0.000183979 0)
(0.0921615 0.00019338 0)
(0.091903 0.000203561 0)
(0.0916361 0.00021462 0)
(0.0913601 0.000226671 0)
(0.0910743 0.000239849 0)
(0.0907777 0.000254314 0)
(0.0904692 0.000270252 0)
(0.0901477 0.000287889 0)
(0.0898117 0.000307492 0)
(0.0894597 0.000329383 0)
(0.0890898 0.000353955 0)
(0.0886998 0.000381683 0)
(0.0882872 0.000413155 0)
(0.087849 0.000449099 0)
(0.0873816 0.000490428 0)
(0.0868808 0.000538297 0)
(0.0863415 0.000594183 0)
(0.0857574 0.000660002 0)
(0.0851209 0.000738269 0)
(0.0844225 0.000832333 0)
(0.0836502 0.000946725 0)
(0.0827891 0.00108767 0)
(0.0818197 0.00126389 0)
(0.0807172 0.00148774 0)
(0.0794486 0.00177715 0)
(0.0779705 0.00215839 0)
(0.0762256 0.00267058 0)
(0.0741385 0.00337229 0)
(0.0716123 0.00435066 0)
(0.068522 0.0057329 0)
(0.0647333 0.00769952 0)
(0.0603083 0.0104441 0)
(0.0563839 0.013782 0)
(0.0999991 1.95316e-06 0)
(0.0999932 5.19367e-06 0)
(0.0999793 1.0532e-05 0)
(0.0999533 1.86842e-05 0)
(0.0999098 2.98522e-05 0)
(0.0998443 4.34022e-05 0)
(0.0997541 5.79872e-05 0)
(0.0996399 7.19837e-05 0)
(0.099505 8.40005e-05 0)
(0.0993545 9.3237e-05 0)
(0.0991939 9.95766e-05 0)
(0.0990283 0.000103448 0)
(0.0988614 0.000105575 0)
(0.0986953 0.000106724 0)
(0.0985312 0.000107539 0)
(0.0983691 0.000108463 0)
(0.0982087 0.000109742 0)
(0.0980493 0.000111466 0)
(0.0978904 0.000113627 0)
(0.0977314 0.000116172 0)
(0.0975719 0.000119032 0)
(0.0974116 0.00012215 0)
(0.0972503 0.000125483 0)
(0.0970879 0.000129007 0)
(0.0969242 0.000132715 0)
(0.0967591 0.000136608 0)
(0.0965925 0.0001407 0)
(0.0964242 0.000145006 0)
(0.0962543 0.000149546 0)
(0.0960824 0.000154342 0)
(0.0959085 0.000159414 0)
(0.0957324 0.000164787 0)
(0.0955539 0.000170483 0)
(0.0953728 0.000176526 0)
(0.095189 0.00018294 0)
(0.0950022 0.000189751 0)
(0.0948123 0.000196986 0)
(0.094619 0.000204675 0)
(0.094422 0.00021285 0)
(0.0942212 0.000221547 0)
(0.0940163 0.000230807 0)
(0.0938071 0.000240675 0)
(0.0935931 0.000251205 0)
(0.0933742 0.000262456 0)
(0.0931499 0.000274496 0)
(0.09292 0.000287404 0)
(0.0926839 0.000301273 0)
(0.0924414 0.000316208 0)
(0.0921918 0.000332332 0)
(0.0919346 0.000349787 0)
(0.0916691 0.00036874 0)
(0.0913948 0.000389385 0)
(0.0911108 0.000411951 0)
(0.0908162 0.000436706 0)
(0.0905101 0.000463969 0)
(0.0901912 0.000494116 0)
(0.0898582 0.000527598 0)
(0.0895096 0.000564958 0)
(0.0891437 0.000606849 0)
(0.0887584 0.000654069 0)
(0.0883514 0.000707593 0)
(0.0879199 0.000768628 0)
(0.0874606 0.00083868 0)
(0.0869696 0.000919641 0)
(0.0864424 0.00101392 0)
(0.0858734 0.00112461 0)
(0.0852561 0.00125574 0)
(0.0845823 0.00141261 0)
(0.0838423 0.0016023 0)
(0.0830239 0.00183435 0)
(0.0821127 0.00212185 0)
(0.0810904 0.00248291 0)
(0.0799352 0.00294281 0)
(0.0786211 0.00353708 0)
(0.0771188 0.00431541 0)
(0.0753984 0.00534614 0)
(0.0734374 0.00671884 0)
(0.0712354 0.00853886 0)
(0.0688518 0.0109008 0)
(0.0665211 0.0137764 0)
(0.0648521 0.0165921 0)
(0.0999991 2.78635e-06 0)
(0.0999934 7.45496e-06 0)
(0.0999798 1.51218e-05 0)
(0.0999544 2.68406e-05 0)
(0.0999119 4.2914e-05 0)
(0.0998477 6.24419e-05 0)
(0.0997593 8.34947e-05 0)
(0.0996471 0.000103735 0)
(0.0995142 0.000121152 0)
(0.0993655 0.000134578 0)
(0.0992065 0.000143831 0)
(0.0990422 0.000149515 0)
(0.0988763 0.000152664 0)
(0.098711 0.000154382 0)
(0.0985475 0.000155596 0)
(0.0983859 0.00015695 0)
(0.098226 0.000158801 0)
(0.0980671 0.000161286 0)
(0.0979086 0.000164398 0)
(0.0977502 0.000168061 0)
(0.0975913 0.000172183 0)
(0.0974317 0.000176677 0)
(0.0972711 0.000181485 0)
(0.0971094 0.000186573 0)
(0.0969465 0.000191928 0)
(0.0967822 0.000197555 0)
(0.0966164 0.000203469 0)
(0.096449 0.000209695 0)
(0.0962798 0.00021626 0)
(0.0961088 0.000223195 0)
(0.0959357 0.000230531 0)
(0.0957605 0.000238301 0)
(0.0955828 0.000246537 0)
(0.0954027 0.000255273 0)
(0.0952197 0.000264545 0)
(0.0950339 0.000274388 0)
(0.0948449 0.000284843 0)
(0.0946525 0.000295951 0)
(0.0944566 0.00030776 0)
(0.0942569 0.00032032 0)
(0.0940531 0.00033369 0)
(0.093845 0.000347935 0)
(0.0936323 0.000363131 0)
(0.0934146 0.000379362 0)
(0.0931918 0.000396727 0)
(0.0929634 0.000415338 0)
(0.092729 0.000435327 0)
(0.0924881 0.000456844 0)
(0.0922404 0.000480062 0)
(0.0919853 0.000505186 0)
(0.0917222 0.000532451 0)
(0.0914505 0.000562132 0)
(0.0911693 0.000594551 0)
(0.0908779 0.000630089 0)
(0.0905753 0.000669192 0)
(0.0902605 0.000712389 0)
(0.0899321 0.000760311 0)
(0.0895889 0.000813714 0)
(0.0892292 0.000873507 0)
(0.0888512 0.00094079 0)
(0.0884527 0.00101691 0)
(0.0880314 0.00110351 0)
(0.0875843 0.00120264 0)
(0.0871081 0.00131684 0)
(0.0865991 0.00144933 0)
(0.0860527 0.00160419 0)
(0.0854637 0.00178664 0)
(0.084826 0.00200347 0)
(0.0841324 0.00226354 0)
(0.083375 0.00257853 0)
(0.0825444 0.00296396 0)
(0.081631 0.00344052 0)
(0.0806248 0.00403577 0)
(0.0795174 0.00478614 0)
(0.0783051 0.00573856 0)
(0.0769945 0.00695053 0)
(0.075612 0.00848466 0)
(0.0742188 0.0103904 0)
(0.0729304 0.0126594 0)
(0.071938 0.0151242 0)
(0.0714711 0.0172449 0)
(0.0999991 3.65346e-06 0)
(0.0999935 9.81525e-06 0)
(0.0999803 1.99013e-05 0)
(0.0999557 3.53326e-05 0)
(0.0999146 5.65252e-05 0)
(0.0998524 8.23194e-05 0)
(0.0997665 0.000110189 0)
(0.099657 0.000137056 0)
(0.099527 0.000160252 0)
(0.099381 0.000178215 0)
(0.0992244 0.00019067 0)
(0.099062 0.000198391 0)
(0.0988975 0.000202725 0)
(0.0987334 0.000205122 0)
(0.0985707 0.000206809 0)
(0.0984099 0.000208644 0)
(0.0982506 0.000211109 0)
(0.0980924 0.000214395 0)
(0.0979348 0.000218502 0)
(0.0977771 0.000223336 0)
(0.0976191 0.000228779 0)
(0.0974605 0.000234721 0)
(0.0973009 0.000241085 0)
(0.0971403 0.000247825 0)
(0.0969785 0.000254925 0)
(0.0968153 0.00026239 0)
(0.0966507 0.000270241 0)
(0.0964844 0.000278508 0)
(0.0963165 0.000287228 0)
(0.0961467 0.000296439 0)
(0.0959748 0.000306184 0)
(0.0958008 0.000316503 0)
(0.0956244 0.00032744 0)
(0.0954455 0.00033904 0)
(0.0952638 0.000351348 0)
(0.0950793 0.000364412 0)
(0.0948917 0.000378284 0)
(0.0947007 0.000393019 0)
(0.0945063 0.000408678 0)
(0.0943081 0.000425329 0)
(0.0941059 0.000443048 0)
(0.0938994 0.00046192 0)
(0.0936885 0.000482044 0)
(0.0934728 0.00050353 0)
(0.0932519 0.000526508 0)
(0.0930256 0.000551124 0)
(0.0927936 0.000577548 0)
(0.0925553 0.000605976 0)
(0.0923103 0.000636633 0)
(0.0920582 0.000669783 0)
(0.0917984 0.000705731 0)
(0.0915303 0.000744831 0)
(0.0912531 0.000787498 0)
(0.0909662 0.000834217 0)
(0.0906687 0.000885561 0)
(0.0903596 0.000942203 0)
(0.0900378 0.00100494 0)
(0.0897021 0.00107474 0)
(0.0893511 0.00115272 0)
(0.0889832 0.00124027 0)
(0.0885966 0.00133905 0)
(0.0881893 0.00145108 0)
(0.0877591 0.00157884 0)
(0.0873032 0.00172542 0)
(0.0868188 0.0018946 0)
(0.0863027 0.00209116 0)
(0.0857513 0.0023211 0)
(0.0851607 0.00259202 0)
(0.0845269 0.00291361 0)
(0.0838459 0.00329822 0)
(0.0831143 0.00376167 0)
(0.08233 0.00432405 0)
(0.0814937 0.00501062 0)
(0.0806106 0.00585232 0)
(0.0796947 0.00688512 0)
(0.0787727 0.00814677 0)
(0.0778912 0.00966764 0)
(0.0771224 0.0114508 0)
(0.0765657 0.0134353 0)
(0.0763322 0.015437 0)
(0.0764775 0.0170807 0)
(0.0999992 4.55638e-06 0)
(0.0999937 1.22644e-05 0)
(0.099981 2.48378e-05 0)
(0.0999574 4.40895e-05 0)
(0.099918 7.05699e-05 0)
(0.0998583 0.000102874 0)
(0.0997756 0.000137879 0)
(0.0996698 0.000171746 0)
(0.0995436 0.000201122 0)
(0.0994012 0.000224009 0)
(0.0992477 0.000240013 0)
(0.0990879 0.000250057 0)
(0.0989255 0.000255793 0)
(0.098763 0.000259023 0)
(0.0986016 0.000261287 0)
(0.0984417 0.00026367 0)
(0.0982834 0.000266796 0)
(0.0981262 0.000270921 0)
(0.0979695 0.000276061 0)
(0.097813 0.00028211 0)
(0.0976562 0.000288928 0)
(0.0974989 0.000296381 0)
(0.0973407 0.000304376 0)
(0.0971815 0.000312854 0)
(0.0970212 0.000321795 0)
(0.0968595 0.000331205 0)
(0.0966964 0.000341107 0)
(0.0965318 0.00035154 0)
(0.0963654 0.000362546 0)
(0.0961972 0.000374174 0)
(0.096027 0.000386475 0)
(0.0958546 0.000399501 0)
(0.0956799 0.000413304 0)
(0.0955026 0.00042794 0)
(0.0953227 0.000443465 0)
(0.09514 0.000459939 0)
(0.0949542 0.000477425 0)
(0.0947651 0.000495992 0)
(0.0945726 0.000515716 0)
(0.0943765 0.000536681 0)
(0.0941764 0.00055898 0)
(0.0939723 0.00058272 0)
(0.0937637 0.000608022 0)
(0.0935505 0.000635023 0)
(0.0933324 0.000663882 0)
(0.093109 0.000694778 0)
(0.0928801 0.000727921 0)
(0.0926452 0.000763551 0)
(0.0924039 0.000801943 0)
(0.0921558 0.000843419 0)
(0.0919004 0.000888349 0)
(0.0916371 0.000937163 0)
(0.0913654 0.000990363 0)
(0.0910845 0.00104853 0)
(0.0907938 0.00111236 0)
(0.0904923 0.00118264 0)
(0.0901792 0.00126033 0)
(0.0898534 0.00134654 0)
(0.0895139 0.00144262 0)
(0.0891592 0.00155016 0)
(0.0887881 0.00167106 0)
(0.0883991 0.00180763 0)
(0.0879904 0.00196266 0)
(0.0875604 0.00213953 0)
(0.0871071 0.00234239 0)
(0.0866287 0.00257631 0)
(0.0861234 0.00284755 0)
(0.0855896 0.00316379 0)
(0.0850263 0.00353453 0)
(0.0844333 0.00397143 0)
(0.083812 0.00448869 0)
(0.0831666 0.00510339 0)
(0.0825049 0.00583551 0)
(0.0818407 0.0067073 0)
(0.0811962 0.00774136 0)
(0.0806046 0.00895621 0)
(0.0801125 0.0103576 0)
(0.0797798 0.0119237 0)
(0.0796725 0.0135829 0)
(0.0798419 0.0151887 0)
(0.0802794 0.0165085 0)
(0.0999992 5.49509e-06 0)
(0.0999939 1.47891e-05 0)
(0.0999817 2.98909e-05 0)
(0.0999593 5.30255e-05 0)
(0.0999219 8.49038e-05 0)
(0.0998653 0.000123902 0)
(0.0997866 0.000166317 0)
(0.0996854 0.000207542 0)
(0.0995639 0.000243514 0)
(0.0994261 0.000271759 0)
(0.0992766 0.000291723 0)
(0.0991202 0.000304443 0)
(0.0989604 0.000311863 0)
(0.0987999 0.000316132 0)
(0.0986401 0.000319111 0)
(0.0984817 0.00032213 0)
(0.0983247 0.000325971 0)
(0.0981687 0.00033097 0)
(0.0980134 0.000337173 0)
(0.0978583 0.000344473 0)
(0.0977031 0.000352708 0)
(0.0975474 0.000361728 0)
(0.097391 0.000371421 0)
(0.0972336 0.000381718 0)
(0.0970752 0.000392594 0)
(0.0969155 0.000404052 0)
(0.0967544 0.000416122 0)
(0.0965917 0.000428844 0)
(0.0964274 0.00044227 0)
(0.0962613 0.000456458 0)
(0.0960931 0.000471466 0)
(0.0959228 0.000487356 0)
(0.0957502 0.000504191 0)
(0.0955752 0.000522035 0)
(0.0953975 0.000540957 0)
(0.0952171 0.000561026 0)
(0.0950336 0.00058232 0)
(0.094847 0.000604919 0)
(0.094657 0.000628914 0)
(0.0944635 0.000654405 0)
(0.0942662 0.000681503 0)
(0.094065 0.000710334 0)
(0.0938595 0.000741042 0)
(0.0936496 0.00077379 0)
(0.093435 0.000808764 0)
(0.0932153 0.000846178 0)
(0.0929904 0.000886277 0)
(0.0927599 0.000929342 0)
(0.0925233 0.000975697 0)
(0.0922804 0.00102572 0)
(0.0920307 0.00107983 0)
(0.0917737 0.00113853 0)
(0.0915089 0.0012024 0)
(0.0912357 0.00127211 0)
(0.0909536 0.00134844 0)
(0.0906618 0.0014323 0)
(0.0903597 0.00152475 0)
(0.0900465 0.00162705 0)
(0.0897213 0.00174067 0)
(0.0893832 0.00186734 0)
(0.0890313 0.00200914 0)
(0.0886647 0.00216851 0)
(0.0882823 0.00234838 0)
(0.0878834 0.00255223 0)
(0.0874671 0.00278424 0)
(0.087033 0.00304939 0)
(0.0865808 0.00335366 0)
(0.0861112 0.00370415 0)
(0.0856255 0.00410928 0)
(0.0851266 0.00457894 0)
(0.0846196 0.00512448 0)
(0.0841122 0.00575865 0)
(0.0836163 0.00649505 0)
(0.0831487 0.00734697 0)
(0.0827331 0.00832518 0)
(0.0824 0.00943401 0)
(0.0821872 0.010665 0)
(0.0821361 0.0119883 0)
(0.0822842 0.0133417 0)
(0.0826494 0.0146235 0)
(0.0832065 0.0156967 0)
(0.0999992 6.46803e-06 0)
(0.0999941 1.73749e-05 0)
(0.0999826 3.50154e-05 0)
(0.0999614 6.20439e-05 0)
(0.0999265 9.93625e-05 0)
(0.0998734 0.000145169 0)
(0.0997992 0.000195212 0)
(0.0997034 0.000244128 0)
(0.0995876 0.000287121 0)
(0.0994552 0.000321198 0)
(0.0993107 0.000345597 0)
(0.0991583 0.000361422 0)
(0.0990019 0.000370875 0)
(0.098844 0.000376446 0)
(0.0986863 0.00038032 0)
(0.0985297 0.000384088 0)
(0.0983743 0.000388708 0)
(0.09822 0.000394618 0)
(0.0980664 0.00040191 0)
(0.0979132 0.000410483 0)
(0.0977599 0.000420169 0)
(0.0976062 0.000430801 0)
(0.097452 0.000442251 0)
(0.0972969 0.000454441 0)
(0.0971408 0.000467339 0)
(0.0969835 0.000480948 0)
(0.0968249 0.000495296 0)
(0.0966647 0.000510432 0)
(0.0965029 0.000526412 0)
(0.0963392 0.000543301 0)
(0.0961736 0.000561166 0)
(0.096006 0.000580077 0)
(0.095836 0.000600107 0)
(0.0956637 0.000621329 0)
(0.0954888 0.000643822 0)
(0.0953111 0.000667668 0)
(0.0951306 0.000692953 0)
(0.094947 0.000719772 0)
(0.0947602 0.000748229 0)
(0.0945699 0.000778439 0)
(0.0943761 0.00081053 0)
(0.0941785 0.000844649 0)
(0.0939769 0.000880958 0)
(0.0937711 0.000919646 0)
(0.0935608 0.000960925 0)
(0.0933459 0.00100504 0)
(0.093126 0.00105226 0)
(0.0929009 0.00110292 0)
(0.0926703 0.00115737 0)
(0.0924338 0.00121604 0)
(0.0921911 0.0012794 0)
(0.0919418 0.00134802 0)
(0.0916856 0.00142252 0)
(0.091422 0.00150365 0)
(0.0911505 0.00159225 0)
(0.0908706 0.0016893 0)
(0.090582 0.00179596 0)
(0.0902839 0.00191355 0)
(0.0899761 0.00204361 0)
(0.0896578 0.00218794 0)
(0.0893288 0.00234865 0)
(0.0889886 0.0025282 0)
(0.0886369 0.00272946 0)
(0.0882738 0.00295577 0)
(0.0878995 0.00321105 0)
(0.0875146 0.00349985 0)
(0.0871205 0.00382738 0)
(0.0867192 0.00419966 0)
(0.0863142 0.00462345 0)
(0.0859101 0.00510623 0)
(0.085514 0.00565602 0)
(0.0851352 0.00628101 0)
(0.0847866 0.00698881 0)
(0.0844845 0.0077853 0)
(0.0842495 0.00867275 0)
(0.0841057 0.00964704 0)
(0.0840799 0.010694 0)
(0.0841974 0.0117849 0)
(0.084477 0.012873 0)
(0.0849209 0.0138921 0)
(0.085505 0.0147637 0)
(0.0999992 7.47425e-06 0)
(0.0999943 2.00077e-05 0)
(0.0999834 4.01657e-05 0)
(0.0999638 7.10445e-05 0)
(0.0999314 0.000113774 0)
(0.0998821 0.000166425 0)
(0.0998132 0.000224248 0)
(0.0997234 0.00028115 0)
(0.099614 0.000331586 0)
(0.0994879 0.000372006 0)
(0.099349 0.000401372 0)
(0.0992016 0.000420801 0)
(0.0990491 0.000432712 0)
(0.0988945 0.000439909 0)
(0.0987396 0.000444905 0)
(0.0985852 0.000449563 0)
(0.098432 0.00045504 0)
(0.0982797 0.000461901 0)
(0.0981282 0.0004703 0)
(0.0979772 0.000480164 0)
(0.0978263 0.000491322 0)
(0.0976751 0.000503599 0)
(0.0975235 0.000516857 0)
(0.0973711 0.000531007 0)
(0.0972178 0.000546009 0)
(0.0970634 0.000561863 0)
(0.0969076 0.0005786 0)
(0.0967504 0.00059627 0)
(0.0965915 0.000614934 0)
(0.0964309 0.000634662 0)
(0.0962684 0.00065553 0)
(0.0961038 0.000677615 0)
(0.0959371 0.000700997 0)
(0.095768 0.000725759 0)
(0.0955964 0.000751988 0)
(0.0954222 0.000779776 0)
(0.0952452 0.000809221 0)
(0.0950652 0.000840429 0)
(0.0948822 0.000873516 0)
(0.094696 0.000908612 0)
(0.0945064 0.00094586 0)
(0.0943132 0.000985423 0)
(0.0941162 0.00102748 0)
(0.0939154 0.00107225 0)
(0.0937105 0.00111996 0)
(0.0935012 0.00117088 0)
(0.0932874 0.00122532 0)
(0.0930689 0.00128362 0)
(0.0928455 0.00134619 0)
(0.0926168 0.00141347 0)
(0.0923826 0.001486 0)
(0.0921427 0.00156435 0)
(0.0918968 0.00164922 0)
(0.0916445 0.00174137 0)
(0.0913857 0.0018417 0)
(0.0911201 0.00195122 0)
(0.0908473 0.0020711 0)
(0.0905671 0.0022027 0)
(0.0902795 0.00234754 0)
(0.0899842 0.0025074 0)
(0.0896814 0.00268429 0)
(0.0893711 0.00288055 0)
(0.0890538 0.00309881 0)
(0.0887302 0.00334208 0)
(0.0884014 0.00361376 0)
(0.0880689 0.00391765 0)
(0.0877352 0.00425796 0)
(0.0874034 0.00463926 0)
(0.0870778 0.00506641 0)
(0.0867643 0.00554438 0)
(0.0864702 0.00607797 0)
(0.086205 0.00667137 0)
(0.0859802 0.00732747 0)
(0.0858098 0.00804695 0)
(0.0857095 0.00882701 0)
(0.0856966 0.00965972 0)
(0.0857879 0.0105302 0)
(0.0859977 0.0114151 0)
(0.0863336 0.0122813 0)
(0.0867922 0.0130879 0)
(0.0873548 0.0137899 0)
(0.0999992 8.51295e-06 0)
(0.0999945 2.26748e-05 0)
(0.0999843 4.53014e-05 0)
(0.0999661 7.99359e-05 0)
(0.0999364 0.000127975 0)
(0.0998913 0.000187428 0)
(0.0998278 0.000253112 0)
(0.0997446 0.000318243 0)
(0.0996422 0.000376531 0)
(0.099523 0.000423821 0)
(0.0993906 0.000458736 0)
(0.0992487 0.000482332 0)
(0.099101 0.000497189 0)
(0.0989503 0.000506399 0)
(0.0987986 0.000512789 0)
(0.0986472 0.000518513 0)
(0.0984965 0.000524947 0)
(0.0983468 0.000532805 0)
(0.0981979 0.000542332 0)
(0.0980496 0.000553494 0)
(0.0979015 0.000566138 0)
(0.0977533 0.000580087 0)
(0.0976047 0.000595193 0)
(0.0974554 0.000611359 0)
(0.0973054 0.000628538 0)
(0.0971542 0.000646728 0)
(0.0970018 0.000665957 0)
(0.096848 0.000686274 0)
(0.0966926 0.000707746 0)
(0.0965355 0.000730447 0)
(0.0963766 0.000754456 0)
(0.0962157 0.000779857 0)
(0.0960526 0.000806738 0)
(0.0958873 0.000835188 0)
(0.0957196 0.000865302 0)
(0.0955495 0.00089718 0)
(0.0953766 0.00093093 0)
(0.095201 0.000966668 0)
(0.0950226 0.00100452 0)
(0.0948411 0.00104463 0)
(0.0946564 0.00108715 0)
(0.0944684 0.00113227 0)
(0.0942771 0.00118017 0)
(0.0940821 0.00123109 0)
(0.0938835 0.00128527 0)
(0.093681 0.00134301 0)
(0.0934745 0.00140464 0)
(0.0932638 0.00147052 0)
(0.0930488 0.00154107 0)
(0.0928293 0.00161678 0)
(0.0926052 0.00169818 0)
(0.0923763 0.00178588 0)
(0.0921424 0.00188058 0)
(0.0919035 0.00198307 0)
(0.0916594 0.00209424 0)
(0.0914101 0.0022151 0)
(0.0911556 0.0023468 0)
(0.0908959 0.00249061 0)
(0.0906311 0.00264801 0)
(0.0903616 0.00282063 0)
(0.0900877 0.0030103 0)
(0.0898102 0.00321908 0)
(0.08953 0.00344925 0)
(0.0892483 0.00370329 0)
(0.0889668 0.00398392 0)
(0.0886878 0.00429405 0)
(0.0884142 0.00463671 0)
(0.0881498 0.00501499 0)
(0.0878992 0.00543189 0)
(0.0876682 0.0058901 0)
(0.0874637 0.00639174 0)
(0.087294 0.00693797 0)
(0.0871685 0.00752849 0)
(0.0870978 0.00816091 0)
(0.0870932 0.00883003 0)
(0.0871656 0.00952709 0)
(0.0873249 0.0102391 0)
(0.087578 0.0109482 0)
(0.087927 0.0116325 0)
(0.0883669 0.0122667 0)
(0.0888844 0.0128252 0)
(0.0999992 9.58394e-06 0)
(0.0999947 2.5368e-05 0)
(0.0999852 5.03923e-05 0)
(0.0999685 8.86465e-05 0)
(0.0999414 0.000141833 0)
(0.0999005 0.000207969 0)
(0.0998426 0.000281521 0)
(0.099766 0.000355068 0)
(0.099671 0.000421582 0)
(0.0995592 0.000476269 0)
(0.0994338 0.000517338 0)
(0.0992982 0.00054571 0)
(0.0991559 0.000564058 0)
(0.0990098 0.000575718 0)
(0.0988621 0.000583826 0)
(0.0987141 0.000590826 0)
(0.0985666 0.00059834 0)
(0.09842 0.000607258 0)
(0.0982742 0.000617936 0)
(0.098129 0.000630407 0)
(0.0979841 0.000644546 0)
(0.0978393 0.000660183 0)
(0.0976942 0.000677169 0)
(0.0975485 0.000695401 0)
(0.0974021 0.000714824 0)
(0.0972547 0.00073543 0)
(0.0971061 0.000757244 0)
(0.0969562 0.000780316 0)
(0.0968048 0.000804711 0)
(0.0966517 0.000830504 0)
(0.0964968 0.00085778 0)
(0.0963401 0.000886626 0)
(0.0961813 0.000917134 0)
(0.0960204 0.0009494 0)
(0.0958572 0.000983524 0)
(0.0956916 0.00101961 0)
(0.0955236 0.00105778 0)
(0.095353 0.00109815 0)
(0.0951798 0.00114087 0)
(0.0950038 0.00118607 0)
(0.0948249 0.00123393 0)
(0.0946431 0.00128463 0)
(0.0944582 0.00133839 0)
(0.0942701 0.00139544 0)
(0.0940788 0.00145605 0)
(0.0938842 0.00152051 0)
(0.0936861 0.00158917 0)
(0.0934845 0.00166241 0)
(0.0932793 0.00174065 0)
(0.0930704 0.00182439 0)
(0.0928579 0.00191415 0)
(0.0926416 0.00201056 0)
(0.0924215 0.00211429 0)
(0.0921978 0.00222612 0)
(0.0919704 0.00234689 0)
(0.0917395 0.00247756 0)
(0.0915053 0.00261919 0)
(0.0912682 0.00277297 0)
(0.0910285 0.00294018 0)
(0.0907869 0.00312226 0)
(0.0905441 0.00332077 0)
(0.0903013 0.00353739 0)
(0.0900596 0.00377392 0)
(0.0898207 0.00403225 0)
(0.0895867 0.00431434 0)
(0.0893602 0.00462216 0)
(0.0891442 0.00495759 0)
(0.0889426 0.00532236 0)
(0.0887597 0.00571785 0)
(0.0886008 0.00614497 0)
(0.0884717 0.00660388 0)
(0.0883789 0.00709375 0)
(0.0883297 0.00761241 0)
(0.0883314 0.00815606 0)
(0.0883912 0.00871892 0)
(0.0885157 0.00929294 0)
(0.0887099 0.00986767 0)
(0.0889766 0.0104304 0)
(0.0893151 0.0109666 0)
(0.0897208 0.011461 0)
(0.0901841 0.0118988 0)
(0.0999992 1.06885e-05 0)
(0.0999949 2.80852e-05 0)
(0.099986 5.54242e-05 0)
(0.0999707 9.7135e-05 0)
(0.0999462 0.000155261 0)
(0.0999092 0.000227902 0)
(0.0998567 0.000309259 0)
(0.0997868 0.000391341 0)
(0.0996992 0.000466407 0)
(0.0995951 0.000528989 0)
(0.099477 0.000576817 0)
(0.0993482 0.00061059 0)
(0.099212 0.000633007 0)
(0.0990712 0.0006476 0)
(0.098928 0.000657788 0)
(0.0987842 0.000666314 0)
(0.0986406 0.000675061 0)
(0.0984976 0.000685121 0)
(0.0983554 0.000696989 0)
(0.0982138 0.000710784 0)
(0.0980726 0.000726427 0)
(0.0979316 0.000743768 0)
(0.0977904 0.000762661 0)
(0.0976487 0.000783 0)
(0.0975064 0.000804724 0)
(0.0973631 0.000827818 0)
(0.0972187 0.000852301 0)
(0.0970731 0.000878219 0)
(0.0969261 0.000905636 0)
(0.0967775 0.000934628 0)
(0.0966272 0.000965278 0)
(0.0964751 0.000997677 0)
(0.0963211 0.00103192 0)
(0.0961651 0.0010681 0)
(0.096007 0.00110633 0)
(0.0958468 0.00114671 0)
(0.0956842 0.00118937 0)
(0.0955194 0.00123443 0)
(0.0953521 0.00128204 0)
(0.0951824 0.00133235 0)
(0.0950101 0.00138554 0)
(0.0948352 0.00144179 0)
(0.0946577 0.00150133 0)
(0.0944775 0.00156439 0)
(0.0942946 0.00163124 0)
(0.0941089 0.0017022 0)
(0.0939204 0.00177759 0)
(0.0937291 0.0018578 0)
(0.093535 0.00194324 0)
(0.0933382 0.0020344 0)
(0.0931387 0.00213178 0)
(0.0929365 0.00223599 0)
(0.0927319 0.00234765 0)
(0.092525 0.00246748 0)
(0.092316 0.00259625 0)
(0.0921053 0.00273483 0)
(0.0918933 0.00288414 0)
(0.0916805 0.00304519 0)
(0.0914675 0.00321907 0)
(0.0912553 0.00340693 0)
(0.0910448 0.00360999 0)
(0.0908374 0.00382951 0)
(0.0906344 0.00406678 0)
(0.0904379 0.00432305 0)
(0.0902499 0.00459955 0)
(0.090073 0.00489737 0)
(0.0899102 0.00521739 0)
(0.0897649 0.00556021 0)
(0.0896409 0.005926 0)
(0.0895426 0.0063144 0)
(0.0894745 0.00672433 0)
(0.0894415 0.00715385 0)
(0.0894485 0.00759999 0)
(0.0895002 0.00805861 0)
(0.0896009 0.00852432 0)
(0.0897542 0.00899042 0)
(0.089962 0.009449 0)
(0.090225 0.00989119 0)
(0.0905414 0.0103075 0)
(0.0909071 0.0106887 0)
(0.0913156 0.0110261 0)
(0.0999992 1.1829e-05 0)
(0.0999951 3.08315e-05 0)
(0.0999867 6.04011e-05 0)
(0.0999726 0.000105396 0)
(0.0999504 0.000168231 0)
(0.0999171 0.000247157 0)
(0.0998697 0.000336197 0)
(0.0998061 0.000426869 0)
(0.0997257 0.000510745 0)
(0.0996293 0.000581665 0)
(0.0995188 0.00063682 0)
(0.0993971 0.00067661 0)
(0.0992674 0.000703682 0)
(0.0991325 0.000721712 0)
(0.0989947 0.000734375 0)
(0.0988556 0.000744711 0)
(0.0987164 0.000754876 0)
(0.0985777 0.000766187 0)
(0.0984396 0.000779304 0)
(0.0983021 0.000794452 0)
(0.0981651 0.000811616 0)
(0.0980282 0.000830678 0)
(0.0978913 0.000851504 0)
(0.097754 0.000873986 0)
(0.0976161 0.000898058 0)
(0.0974774 0.000923699 0)
(0.0973377 0.00095092 0)
(0.0971968 0.000979761 0)
(0.0970545 0.00101028 0)
(0.0969109 0.00104256 0)
(0.0967656 0.00107666 0)
(0.0966187 0.00111269 0)
(0.09647 0.00115074 0)
(0.0963195 0.0011909 0)
(0.096167 0.00123328 0)
(0.0960127 0.00127799 0)
(0.0958563 0.00132516 0)
(0.0956978 0.00137491 0)
(0.0955372 0.00142739 0)
(0.0953745 0.00148274 0)
(0.0952096 0.00154116 0)
(0.0950426 0.00160283 0)
(0.0948734 0.00166795 0)
(0.094702 0.00173679 0)
(0.0945285 0.00180959 0)
(0.0943528 0.00188665 0)
(0.094175 0.0019683 0)
(0.0939953 0.0020549 0)
(0.0938136 0.00214685 0)
(0.0936301 0.0022446 0)
(0.0934449 0.00234862 0)
(0.0932583 0.00245944 0)
(0.0930706 0.00257763 0)
(0.0928819 0.00270383 0)
(0.0926928 0.00283869 0)
(0.0925036 0.00298294 0)
(0.092315 0.00313734 0)
(0.0921277 0.00330269 0)
(0.0919424 0.00347982 0)
(0.0917602 0.00366957 0)
(0.0915823 0.0038728 0)
(0.0914099 0.00409033 0)
(0.0912447 0.00432295 0)
(0.0910886 0.00457133 0)
(0.0909436 0.00483603 0)
(0.090812 0.00511742 0)
(0.0906965 0.00541559 0)
(0.0906 0.00573031 0)
(0.0905256 0.00606094 0)
(0.0904765 0.00640634 0)
(0.090456 0.00676479 0)
(0.0904675 0.0071339 0)
(0.0905141 0.00751057 0)
(0.0905985 0.00789096 0)
(0.0907232 0.00827049 0)
(0.0908894 0.0086439 0)
(0.0910978 0.00900543 0)
(0.0913477 0.00934899 0)
(0.0916371 0.00966845 0)
(0.0919627 0.00995803 0)
(0.0923196 0.0102127 0)
(0.0999992 1.30096e-05 0)
(0.0999953 3.36179e-05 0)
(0.0999874 6.53448e-05 0)
(0.0999743 0.000113461 0)
(0.0999541 0.000180774 0)
(0.099924 0.000265745 0)
(0.0998812 0.000362306 0)
(0.0998235 0.000461557 0)
(0.0997499 0.000554424 0)
(0.0996608 0.000634048 0)
(0.0995578 0.000697032 0)
(0.0994436 0.000743407 0)
(0.0993208 0.000775699 0)
(0.0991923 0.00079767 0)
(0.0990603 0.000813223 0)
(0.0989266 0.000825681 0)
(0.0987925 0.000837482 0)
(0.0986585 0.000850184 0)
(0.0985251 0.000864634 0)
(0.0983922 0.000881185 0)
(0.0982597 0.000899901 0)
(0.0981275 0.000920708 0)
(0.0979952 0.000943491 0)
(0.0978626 0.000968148 0)
(0.0977295 0.000994608 0)
(0.0975957 0.00102284 0)
(0.097461 0.00105285 0)
(0.0973252 0.00108467 0)
(0.0971881 0.00111835 0)
(0.0970498 0.00115396 0)
(0.09691 0.00119158 0)
(0.0967687 0.00123128 0)
(0.0966258 0.00127316 0)
(0.0964813 0.00131732 0)
(0.0963351 0.00136386 0)
(0.0961872 0.00141288 0)
(0.0960375 0.00146451 0)
(0.0958861 0.00151887 0)
(0.095733 0.0015761 0)
(0.0955781 0.00163636 0)
(0.0954214 0.00169981 0)
(0.095263 0.00176664 0)
(0.095103 0.00183705 0)
(0.0949414 0.00191128 0)
(0.0947782 0.00198957 0)
(0.0946135 0.00207219 0)
(0.0944475 0.00215945 0)
(0.0942804 0.00225168 0)
(0.0941122 0.00234924 0)
(0.0939431 0.00245252 0)
(0.0937735 0.00256193 0)
(0.0936037 0.00267794 0)
(0.0934339 0.00280102 0)
(0.0932646 0.00293169 0)
(0.0930963 0.00307047 0)
(0.0929296 0.00321792 0)
(0.0927652 0.0033746 0)
(0.0926038 0.0035411 0)
(0.0924463 0.00371796 0)
(0.0922939 0.00390573 0)
(0.0921478 0.00410489 0)
(0.0920091 0.00431587 0)
(0.0918796 0.004539 0)
(0.0917609 0.00477447 0)
(0.0916548 0.0050223 0)
(0.0915633 0.00528231 0)
(0.0914886 0.00555403 0)
(0.091433 0.00583673 0)
(0.0913987 0.00612927 0)
(0.0913881 0.00643015 0)
(0.0914034 0.00673744 0)
(0.0914466 0.00704873 0)
(0.0915197 0.00736119 0)
(0.091624 0.00767152 0)
(0.0917605 0.00797609 0)
(0.0919295 0.00827093 0)
(0.0921307 0.00855195 0)
(0.0923629 0.00881499 0)
(0.0926242 0.00905611 0)
(0.0929119 0.00927169 0)
(0.0932226 0.00945875 0)
(0.0999992 1.42341e-05 0)
(0.0999954 3.64592e-05 0)
(0.0999879 7.02895e-05 0)
(0.0999758 0.000121389 0)
(0.0999573 0.000192969 0)
(0.0999299 0.000283751 0)
(0.099891 0.000387647 0)
(0.0998385 0.000495409 0)
(0.0997711 0.000597366 0)
(0.099689 0.000685965 0)
(0.0995935 0.000757189 0)
(0.0994866 0.000810643 0)
(0.099371 0.000848669 0)
(0.0992492 0.000875065 0)
(0.0991236 0.000893922 0)
(0.0989959 0.00090883 0)