/*--------------------------------*- C++ -*----------------------------------*\
| =========                 |                                                 |
| \\      /  F ield         | OpenFOAM: The Open Source CFD Toolbox           |
|  \\    /   O peration     | Version:  4.1                                   |
|   \\  /    A nd           | Web:      www.OpenFOAM.org                      |
|    \\/     M anipulation  |                                                 |
\*---------------------------------------------------------------------------*/
FoamFile
{
    version     2.0;
    format      ascii;
    class       volVectorField;
    location    "0.4";
    object      U;
}
// * * * * * * * * * * * * * * * * * * * * * * * * * * * * * * * * * * * * * //

dimensions      [0 1 -1 0 0 0 0];

internalField   nonuniform List<vector> 
12013
(
(0.0999932 3.93165e-06 0)
(0.0999225 1.11687e-05 0)
(0.0997639 1.83887e-05 0)
(0.0995477 2.2247e-05 0)
(0.099319 2.22931e-05 0)
(0.0991101 2.01901e-05 0)
(0.0989301 1.7833e-05 0)
(0.0987733 1.62736e-05 0)
(0.098629 1.56966e-05 0)
(0.0984887 1.58433e-05 0)
(0.0983476 1.63774e-05 0)
(0.0982038 1.70552e-05 0)
(0.0980569 1.77474e-05 0)
(0.0979075 1.84066e-05 0)
(0.0977559 1.90266e-05 0)
(0.0976026 1.96174e-05 0)
(0.0974479 2.01907e-05 0)
(0.0972921 2.07568e-05 0)
(0.0971352 2.1321e-05 0)
(0.0969775 2.18861e-05 0)
(0.096819 2.24526e-05 0)
(0.0966598 2.30184e-05 0)
(0.0965001 2.35807e-05 0)
(0.09634 2.41345e-05 0)
(0.0961797 2.46747e-05 0)
(0.0960193 2.51962e-05 0)
(0.0958592 2.56933e-05 0)
(0.0956995 2.61611e-05 0)
(0.0955406 2.65956e-05 0)
(0.0953827 2.69937e-05 0)
(0.0952261 2.73531e-05 0)
(0.0950711 2.76739e-05 0)
(0.0949179 2.79567e-05 0)
(0.0947668 2.82038e-05 0)
(0.0946179 2.84195e-05 0)
(0.0944714 2.86086e-05 0)
(0.0943275 2.87778e-05 0)
(0.0941862 2.89351e-05 0)
(0.0940476 2.90892e-05 0)
(0.0939115 2.925e-05 0)
(0.0937781 2.94284e-05 0)
(0.0936471 2.96359e-05 0)
(0.0935183 2.98853e-05 0)
(0.0933916 3.01901e-05 0)
(0.0932667 3.05647e-05 0)
(0.0931432 3.10246e-05 0)
(0.0930209 3.15868e-05 0)
(0.0928991 3.22705e-05 0)
(0.0927776 3.30954e-05 0)
(0.0926557 3.40855e-05 0)
(0.0925328 3.52671e-05 0)
(0.0924083 3.66712e-05 0)
(0.0922814 3.83345e-05 0)
(0.0921513 4.03e-05 0)
(0.0920169 4.26199e-05 0)
(0.0918772 4.53581e-05 0)
(0.0917309 4.85919e-05 0)
(0.0915765 5.24166e-05 0)
(0.0914123 5.69508e-05 0)
(0.0912362 6.23422e-05 0)
(0.0910458 6.87759e-05 0)
(0.0908382 7.64863e-05 0)
(0.0906098 8.5772e-05 0)
(0.0903564 9.70179e-05 0)
(0.0900727 0.000110724 0)
(0.0897521 0.000127549 0)
(0.0893864 0.000148372 0)
(0.0889651 0.000174383 0)
(0.0884749 0.000207221 0)
(0.0878983 0.000249181 0)
(0.0872119 0.00030354 0)
(0.0863845 0.000375073 0)
(0.0853732 0.000470882 0)
(0.0841175 0.000601761 0)
(0.0825315 0.000784486 0)
(0.0804902 0.0010457 0)
(0.0778082 0.00142864 0)
(0.0741921 0.00200713 0)
(0.0691856 0.00292934 0)
(0.0622509 0.00460802 0)
(0.054433 0.0088982 0)
(0.0999944 1.19309e-05 0)
(0.0999254 3.41061e-05 0)
(0.0997693 5.62581e-05 0)
(0.0995552 6.81441e-05 0)
(0.0993279 6.83552e-05 0)
(0.0991195 6.19642e-05 0)
(0.0989394 5.47686e-05 0)
(0.0987822 4.99961e-05 0)
(0.0986374 4.82221e-05 0)
(0.0984968 4.86595e-05 0)
(0.0983556 5.02846e-05 0)
(0.0982117 5.23517e-05 0)
(0.098065 5.44657e-05 0)
(0.0979157 5.64806e-05 0)
(0.0977644 5.83773e-05 0)
(0.0976114 6.01857e-05 0)
(0.0974571 6.19423e-05 0)
(0.0973016 6.3676e-05 0)
(0.0971451 6.54053e-05 0)
(0.0969878 6.71378e-05 0)
(0.0968297 6.88741e-05 0)
(0.0966709 7.06094e-05 0)
(0.0965116 7.23333e-05 0)
(0.0963519 7.4032e-05 0)
(0.096192 7.56898e-05 0)
(0.0960321 7.729e-05 0)
(0.0958724 7.88165e-05 0)
(0.0957131 8.0254e-05 0)
(0.0955545 8.15899e-05 0)
(0.095397 8.28147e-05 0)
(0.0952407 8.39225e-05 0)
(0.0950859 8.49121e-05 0)
(0.094933 8.57862e-05 0)
(0.094782 8.65521e-05 0)
(0.0946333 8.72217e-05 0)
(0.0944869 8.78113e-05 0)
(0.094343 8.8341e-05 0)
(0.0942016 8.88346e-05 0)
(0.0940629 8.93196e-05 0)
(0.0939267 8.98256e-05 0)
(0.093793 9.03866e-05 0)
(0.0936617 9.10375e-05 0)
(0.0935326 9.18175e-05 0)
(0.0934054 9.27676e-05 0)
(0.09328 9.39325e-05 0)
(0.093156 9.53602e-05 0)
(0.093033 9.7102e-05 0)
(0.0929106 9.92152e-05 0)
(0.0927883 0.000101762 0)
(0.0926656 0.000104816 0)
(0.092542 0.000108456 0)
(0.0924166 0.000112777 0)
(0.0922888 0.000117892 0)
(0.0921578 0.000123931 0)
(0.0920226 0.000131054 0)
(0.0918821 0.000139453 0)
(0.091735 0.000149364 0)
(0.09158 0.000161078 0)
(0.0914152 0.000174953 0)
(0.0912388 0.000191435 0)
(0.0910484 0.000211086 0)
(0.0908412 0.000234609 0)
(0.0906138 0.000262906 0)
(0.0903621 0.000297128 0)
(0.0900812 0.000338772 0)
(0.0897649 0.000389799 0)
(0.0894056 0.000452814 0)
(0.0889938 0.000531325 0)
(0.0885173 0.000630128 0)
(0.0879606 0.000755884 0)
(0.0873037 0.000918006 0)
(0.0865201 0.00113002 0)
(0.0855748 0.00141172 0)
(0.0844211 0.0017925 0)
(0.0829963 0.00231669 0)
(0.0812171 0.00305162 0)
(0.0789746 0.00409925 0)
(0.0761258 0.00561159 0)
(0.0725122 0.00781035 0)
(0.0681868 0.0109498 0)
(0.0644271 0.0148842 0)
(0.0999954 2.00027e-05 0)
(0.0999299 5.79302e-05 0)
(0.0997795 9.59378e-05 0)
(0.099571 0.000116571 0)
(0.0993474 0.00011727 0)
(0.0991403 0.00010659 0)
(0.0989599 9.44054e-05 0)
(0.0988016 8.62618e-05 0)
(0.0986557 8.31884e-05 0)
(0.0985143 8.38786e-05 0)
(0.0983726 8.66049e-05 0)
(0.0982288 9.01001e-05 0)
(0.0980823 9.36902e-05 0)
(0.0979335 9.71213e-05 0)
(0.0977827 0.000100359 0)
(0.0976304 0.000103452 0)
(0.0974768 0.00010646 0)
(0.0973221 0.000109431 0)
(0.0971665 0.000112395 0)
(0.0970101 0.000115367 0)
(0.0968529 0.000118347 0)
(0.096695 0.000121325 0)
(0.0965366 0.000124285 0)
(0.0963779 0.000127204 0)
(0.0962189 0.000130054 0)
(0.0960599 0.000132807 0)
(0.0959011 0.000135436 0)
(0.0957427 0.000137915 0)
(0.095585 0.000140223 0)
(0.0954283 0.000142344 0)
(0.0952728 0.000144267 0)
(0.0951187 0.00014599 0)
(0.0949664 0.000147519 0)
(0.094816 0.000148866 0)
(0.0946677 0.000150052 0)
(0.0945216 0.000151103 0)
(0.0943779 0.000152056 0)
(0.0942367 0.00015295 0)
(0.0940979 0.000153832 0)
(0.0939615 0.000154754 0)
(0.0938276 0.000155773 0)
(0.0936958 0.000156949 0)
(0.0935662 0.000158349 0)
(0.0934384 0.000160043 0)
(0.0933122 0.000162108 0)
(0.0931872 0.000164625 0)
(0.0930632 0.000167684 0)
(0.0929397 0.000171379 0)
(0.0928162 0.000175821 0)
(0.0926922 0.00018113 0)
(0.0925671 0.000187444 0)
(0.0924404 0.000194924 0)
(0.0923111 0.000203759 0)
(0.0921787 0.000214172 0)
(0.092042 0.000226432 0)
(0.0919001 0.000240864 0)
(0.0917518 0.000257866 0)
(0.0915956 0.000277925 0)
(0.0914301 0.00030164 0)
(0.0912532 0.000329758 0)
(0.0910629 0.00036321 0)
(0.0908565 0.000403166 0)
(0.090631 0.000451107 0)
(0.0903825 0.000508923 0)
(0.0901067 0.000579048 0)
(0.0897982 0.000664649 0)
(0.0894503 0.00076989 0)
(0.089055 0.000900312 0)
(0.0886024 0.00106339 0)
(0.0880801 0.00126931 0)
(0.087473 0.00153218 0)
(0.0867623 0.00187174 0)
(0.085925 0.00231587 0)
(0.0849335 0.00290423 0)
(0.0837564 0.00369315 0)
(0.0823613 0.00476151 0)
(0.0807237 0.00621532 0)
(0.0788427 0.00818465 0)
(0.076784 0.0107982 0)
(0.0748083 0.0140622 0)
(0.0736069 0.0173798 0)
(0.0999963 2.78938e-05 0)
(0.0999361 8.20796e-05 0)
(0.0997948 0.000136706 0)
(0.0995954 0.000166959 0)
(0.099378 0.000168808 0)
(0.0991733 0.000154166 0)
(0.0989926 0.000137045 0)
(0.0988325 0.000125437 0)
(0.0986848 0.000120936 0)
(0.0985421 0.000121777 0)
(0.0983998 0.000125547 0)
(0.0982559 0.000130453 0)
(0.0981099 0.000135533 0)
(0.0979618 0.000140415 0)
(0.097812 0.000145041 0)
(0.0976608 0.000149472 0)
(0.0975084 0.000153791 0)
(0.097355 0.000158063 0)
(0.0972007 0.000162328 0)
(0.0970457 0.000166606 0)
(0.0968899 0.000170897 0)
(0.0967336 0.00017519 0)
(0.0965767 0.000179458 0)
(0.0964195 0.000183669 0)
(0.0962621 0.000187786 0)
(0.0961046 0.000191767 0)
(0.0959474 0.000195575 0)
(0.0957905 0.000199172 0)
(0.0956343 0.00020253 0)
(0.095479 0.000205624 0)
(0.0953248 0.000208443 0)
(0.095172 0.000210981 0)
(0.0950208 0.000213247 0)
(0.0948714 0.000215258 0)
(0.0947239 0.000217045 0)
(0.0945786 0.000218647 0)
(0.0944354 0.000220114 0)
(0.0942946 0.000221504 0)
(0.094156 0.000222884 0)
(0.0940197 0.000224328 0)
(0.0938855 0.000225916 0)
(0.0937535 0.000227737 0)
(0.0936233 0.000229885 0)
(0.0934948 0.000232462 0)
(0.0933678 0.000235577 0)
(0.0932418 0.000239345 0)
(0.0931166 0.000243896 0)
(0.0929918 0.000249365 0)
(0.0928669 0.000255909 0)
(0.0927414 0.000263699 0)
(0.0926148 0.000272933 0)
(0.0924864 0.000283838 0)
(0.0923555 0.00029668 0)
(0.0922214 0.000311777 0)
(0.0920832 0.000329507 0)
(0.0919399 0.000350328 0)
(0.0917904 0.000374794 0)
(0.0916334 0.000403585 0)
(0.0914675 0.000437535 0)
(0.0912909 0.000477676 0)
(0.0911017 0.000525287 0)
(0.0908975 0.000581967 0)
(0.0906758 0.000649724 0)
(0.0904332 0.000731099 0)
(0.0901661 0.000829334 0)
(0.0898701 0.000948591 0)
(0.0895401 0.00109427 0)
(0.0891699 0.00127344 0)
(0.0887525 0.00149541 0)
(0.0882797 0.00177263 0)
(0.0877423 0.00212174 0)
(0.0871303 0.00256521 0)
(0.0864338 0.00313333 0)
(0.0856445 0.00386667 0)
(0.0847595 0.0048185 0)
(0.083787 0.00605568 0)
(0.0827579 0.00765429 0)
(0.081742 0.00968158 0)
(0.0808713 0.012149 0)
(0.0803658 0.014899 0)
(0.0804957 0.0173577 0)
(0.0999972 3.53682e-05 0)
(0.0999439 0.000105859 0)
(0.0998148 0.000177653 0)
(0.0996279 0.000218556 0)
(0.0994193 0.000222613 0)
(0.0992183 0.000204738 0)
(0.0990373 0.000182991 0)
(0.0988751 0.000167916 0)
(0.0987251 0.000161837 0)
(0.0985807 0.000162652 0)
(0.0984376 0.000167326 0)
(0.0982937 0.00017356 0)
(0.0981483 0.000180094 0)
(0.0980012 0.000186426 0)
(0.0978528 0.000192463 0)
(0.0977031 0.00019827 0)
(0.0975525 0.000203946 0)
(0.0974009 0.00020957 0)
(0.0972485 0.000215192 0)
(0.0970954 0.000220835 0)
(0.0969417 0.0002265 0)
(0.0967875 0.000232169 0)
(0.0966328 0.000237811 0)
(0.0964778 0.000243383 0)
(0.0963226 0.000248835 0)
(0.0961673 0.000254118 0)
(0.0960123 0.000259179 0)
(0.0958576 0.000263974 0)
(0.0957035 0.000268464 0)
(0.0955503 0.000272618 0)
(0.0953981 0.000276421 0)
(0.0952471 0.000279869 0)
(0.0950976 0.00028297 0)
(0.0949498 0.000285751 0)
(0.0948037 0.000288248 0)
(0.0946595 0.000290515 0)
(0.0945174 0.000292616 0)
(0.0943773 0.000294628 0)
(0.0942393 0.000296638 0)
(0.0941033 0.000298743 0)
(0.0939693 0.000301048 0)
(0.0938371 0.000303669 0)
(0.0937067 0.000306731 0)
(0.0935776 0.000310364 0)
(0.0934499 0.000314713 0)
(0.093323 0.000319928 0)
(0.0931968 0.000326178 0)
(0.0930707 0.00033364 0)
(0.0929445 0.000342518 0)
(0.0928176 0.000353033 0)
(0.0926895 0.000365443 0)
(0.0925596 0.000380041 0)
(0.0924273 0.000397172 0)
(0.0922919 0.000417241 0)
(0.0921525 0.000440733 0)
(0.0920083 0.000468231 0)
(0.0918583 0.00050044 0)
(0.0917013 0.000538215 0)
(0.091536 0.000582606 0)
(0.0913611 0.000634895 0)
(0.0911747 0.000696667 0)
(0.090975 0.00076988 0)
(0.0907599 0.000856974 0)
(0.0905268 0.000960997 0)
(0.090273 0.00108578 0)
(0.0899953 0.00123618 0)
(0.0896903 0.00141835 0)
(0.0893541 0.00164019 0)
(0.088983 0.00191183 0)
(0.088573 0.00224635 0)
(0.0881211 0.00266061 0)
(0.0876255 0.00317631 0)
(0.0870878 0.00382104 0)
(0.0865146 0.00462913 0)
(0.0859222 0.00564147 0)
(0.0853416 0.00690261 0)
(0.0848262 0.0084519 0)
(0.0844589 0.010303 0)
(0.0843557 0.0124041 0)
(0.0846492 0.0145711 0)
(0.0854161 0.016405 0)
(0.0999981 4.21597e-05 0)
(0.0999529 0.000128517 0)
(0.0998385 0.000217775 0)
(0.0996672 0.000270486 0)
(0.0994697 0.000278214 0)
(0.0992738 0.000258269 0)
(0.099093 0.0002325 0)
(0.0989286 0.000214077 0)
(0.098776 0.00020626 0)
(0.0986297 0.000206804 0)
(0.0984857 0.00021216 0)
(0.0983419 0.000219564 0)
(0.0981974 0.000227458 0)
(0.0980517 0.0002352 0)
(0.097905 0.000242641 0)
(0.0977574 0.000249841 0)
(0.0976089 0.000256904 0)
(0.0974597 0.000263918 0)
(0.0973098 0.000270942 0)
(0.0971593 0.000277998 0)
(0.0970082 0.000285087 0)
(0.0968567 0.000292187 0)
(0.0967048 0.000299259 0)
(0.0965526 0.00030625 0)
(0.0964003 0.000313103 0)
(0.096248 0.000319754 0)
(0.0960958 0.000326143 0)
(0.095944 0.000332214 0)
(0.0957927 0.000337921 0)
(0.0956422 0.000343228 0)
(0.0954926 0.000348116 0)
(0.0953442 0.00035258 0)
(0.095197 0.000356633 0)
(0.0950513 0.000360306 0)
(0.0949071 0.000363646 0)
(0.0947647 0.000366719 0)
(0.0946241 0.000369603 0)
(0.0944852 0.000372393 0)
(0.0943482 0.000375198 0)
(0.094213 0.000378136 0)
(0.0940794 0.000381339 0)
(0.0939475 0.00038495 0)
(0.093817 0.000389121 0)
(0.0936878 0.000394015 0)
(0.0935596 0.00039981 0)
(0.0934321 0.000406692 0)
(0.0933051 0.000414867 0)
(0.0931781 0.000424556 0)
(0.0930509 0.000436006 0)
(0.0929229 0.00044949 0)
(0.0927938 0.00046532 0)
(0.0926629 0.000483855 0)
(0.0925297 0.00050551 0)
(0.0923936 0.000530775 0)
(0.0922538 0.000560232 0)
(0.0921096 0.000594576 0)
(0.0919602 0.00063464 0)
(0.0918045 0.000681434 0)
(0.0916415 0.000736182 0)
(0.0914701 0.000800371 0)
(0.091289 0.000875816 0)
(0.0910967 0.000964739 0)
(0.0908916 0.00106987 0)
(0.0906722 0.00119456 0)
(0.0904366 0.00134296 0)
(0.0901831 0.00152022 0)
(0.0899101 0.00173271 0)
(0.089616 0.00198836 0)
(0.0893002 0.00229704 0)
(0.0889627 0.00267097 0)
(0.0886057 0.00312516 0)
(0.0882338 0.00367787 0)
(0.0878564 0.00435071 0)
(0.0874893 0.00516821 0)
(0.0871575 0.00615605 0)
(0.0868991 0.00733677 0)
(0.0867674 0.00872104 0)
(0.0868319 0.0102921 0)
(0.0871712 0.011982 0)
(0.087851 0.0136419 0)
(0.0888742 0.0150259 0)
(0.099999 4.80175e-05 0)
(0.0999624 0.000149344 0)
(0.0998644 0.000256079 0)
(0.0997107 0.000321828 0)
(0.0995265 0.000335044 0)
(0.0993371 0.000314609 0)
(0.0991573 0.000285731 0)
(0.0989911 0.000264223 0)
(0.098836 0.000254529 0)
(0.0986879 0.000254504 0)
(0.0985432 0.000260246 0)
(0.0983997 0.00026859 0)
(0.0982563 0.000277696 0)
(0.0981124 0.000286762 0)
(0.0979679 0.000295571 0)
(0.0978227 0.000304156 0)
(0.0976769 0.000312617 0)
(0.0975305 0.000321046 0)
(0.0973836 0.0003295 0)
(0.0972362 0.000338005 0)
(0.0970884 0.000346557 0)
(0.0969402 0.00035513 0)
(0.0967917 0.000363678 0)
(0.0966429 0.00037214 0)
(0.0964941 0.000380449 0)
(0.0963453 0.000388532 0)
(0.0961967 0.000396318 0)
(0.0960484 0.000403743 0)
(0.0959005 0.000410754 0)
(0.0957534 0.000417313 0)
(0.095607 0.000423394 0)
(0.0954616 0.000428995 0)
(0.0953174 0.000434132 0)
(0.0951744 0.00043884 0)
(0.0950327 0.000443177 0)
(0.0948926 0.00044722 0)
(0.0947539 0.000451062 0)
(0.0946168 0.000454817 0)
(0.0944812 0.00045861 0)
(0.0943472 0.000462585 0)
(0.0942146 0.000466897 0)
(0.0940833 0.000471714 0)
(0.0939532 0.000477217 0)
(0.0938241 0.0004836 0)
(0.0936959 0.000491072 0)
(0.0935682 0.000499854 0)
(0.0934409 0.000510188 0)
(0.0933135 0.000522335 0)
(0.0931857 0.000536583 0)
(0.0930573 0.000553254 0)
(0.0929277 0.000572711 0)
(0.0927965 0.000595368 0)
(0.0926632 0.000621705 0)
(0.0925273 0.000652285 0)
(0.0923882 0.000687768 0)
(0.0922453 0.000728941 0)
(0.0920979 0.000776742 0)
(0.0919453 0.000832292 0)
(0.0917867 0.00089694 0)
(0.0916212 0.000972306 0)
(0.091448 0.00106034 0)
(0.0912662 0.0011634 0)
(0.091075 0.00128434 0)
(0.0908734 0.00142658 0)
(0.0906609 0.00159428 0)
(0.0904371 0.00179245 0)
(0.0902018 0.00202714 0)
(0.089956 0.00230559 0)
(0.0897013 0.00263647 0)
(0.089441 0.00302997 0)
(0.0891808 0.00349794 0)
(0.0889295 0.00405376 0)
(0.0887003 0.00471188 0)
(0.0885122 0.00548671 0)
(0.0883914 0.00639043 0)
(0.0883728 0.00742907 0)
(0.0884994 0.00859615 0)
(0.0888199 0.00986343 0)
(0.08938 0.0111695 0)
(0.0902065 0.0124106 0)
(0.0912804 0.013443 0)
(0.0999998 5.27636e-05 0)
(0.0999718 0.000167771 0)
(0.0998904 0.000291716 0)
(0.0997555 0.000371712 0)
(0.099586 0.000392475 0)
(0.0994046 0.000373468 0)
(0.0992272 0.00034268 0)
(0.09906 0.00031852 0)
(0.0989031 0.000306864 0)
(0.0987535 0.000305957 0)
(0.0986084 0.000311738 0)
(0.0984655 0.000320739 0)
(0.0983235 0.000330859 0)
(0.0981817 0.000341126 0)
(0.0980397 0.000351232 0)
(0.0978974 0.000361169 0)
(0.0977548 0.00037102 0)
(0.0976117 0.000380869 0)
(0.0974683 0.00039077 0)
(0.0973245 0.000400745 0)
(0.0971803 0.000410787 0)
(0.0970359 0.000420864 0)
(0.0968913 0.000430924 0)
(0.0967466 0.000440898 0)
(0.0966018 0.000450711 0)
(0.096457 0.000460281 0)
(0.0963124 0.00046953 0)
(0.0961682 0.000478387 0)
(0.0960243 0.000486793 0)
(0.095881 0.000494704 0)
(0.0957384 0.000502096 0)
(0.0955967 0.000508965 0)
(0.0954558 0.000515331 0)
(0.0953161 0.000521236 0)
(0.0951774 0.000526745 0)
(0.09504 0.000531945 0)
(0.0949038 0.000536946 0)
(0.0947689 0.000541874 0)
(0.0946352 0.000546877 0)
(0.0945028 0.000552116 0)
(0.0943715 0.00055777 0)
(0.0942413 0.000564032 0)
(0.0941121 0.000571108 0)
(0.0939837 0.000579221 0)
(0.0938559 0.000588608 0)
(0.0937286 0.000599524 0)
(0.0936014 0.000612242 0)
(0.0934742 0.000627058 0)
(0.0933466 0.0006443 0)
(0.0932184 0.000664327 0)
(0.0930891 0.000687547 0)
(0.0929585 0.000714422 0)
(0.0928262 0.000745481 0)
(0.0926917 0.000781341 0)
(0.0925546 0.000822722 0)
(0.0924145 0.000870474 0)
(0.0922708 0.000925596 0)
(0.0921232 0.000989276 0)
(0.0919711 0.00106292 0)
(0.0918141 0.0011482 0)
(0.0916517 0.00124709 0)
(0.0914837 0.00136193 0)
(0.0913098 0.00149551 0)
(0.09113 0.0016511 0)
(0.0909447 0.00183254 0)
(0.0907546 0.00204435 0)
(0.0905612 0.00229176 0)
(0.0903669 0.00258078 0)
(0.0901753 0.00291826 0)
(0.0899916 0.00331175 0)
(0.0898235 0.00376939 0)
(0.0896812 0.00429951 0)
(0.0895787 0.00490986 0)
(0.0895342 0.00560648 0)
(0.0895703 0.00639178 0)
(0.0897143 0.0072618 0)
(0.0899964 0.00820242 0)
(0.0904466 0.00918489 0)
(0.0910883 0.0101617 0)
(0.0919289 0.0110652 0)
(0.0929474 0.0118139 0)
(0.1 5.63291e-05 0)
(0.0999802 0.000183466 0)
(0.0999147 0.000324089 0)
(0.0997984 0.000419419 0)
(0.0996443 0.000449865 0)
(0.0994724 0.000434417 0)
(0.0992988 0.00040315 0)
(0.0991321 0.000376948 0)
(0.0989744 0.000363341 0)
(0.0988241 0.000361267 0)
(0.0986791 0.000366731 0)
(0.0985372 0.000376075 0)
(0.098397 0.000386974 0)
(0.0982576 0.000398285 0)
(0.0981185 0.000409592 0)
(0.0979794 0.000420827 0)
(0.0978403 0.00043204 0)
(0.0977009 0.000443297 0)
(0.0975613 0.000454646 0)
(0.0974215 0.0004661 0)
(0.0972815 0.000477647 0)
(0.0971413 0.000489248 0)
(0.097001 0.000500847 0)
(0.0968606 0.000512367 0)
(0.0967203 0.000523724 0)
(0.09658 0.000534833 0)
(0.0964399 0.000545608 0)
(0.0963001 0.000555972 0)
(0.0961606 0.000565863 0)
(0.0960216 0.000575234 0)
(0.0958832 0.00058406 0)
(0.0957454 0.000592338 0)
(0.0956085 0.000600092 0)
(0.0954723 0.000607367 0)
(0.0953371 0.000614239 0)
(0.0952028 0.000620803 0)
(0.0950694 0.000627181 0)
(0.0949371 0.000633514 0)
(0.0948058 0.000639965 0)
(0.0946754 0.000646714 0)
(0.094546 0.000653959 0)
(0.0944174 0.000661915 0)
(0.0942895 0.000670812 0)
(0.0941622 0.000680897 0)
(0.0940355 0.000692432 0)
(0.093909 0.000705698 0)
(0.0937827 0.000720997 0)
(0.0936563 0.000738655 0)
(0.0935297 0.000759027 0)
(0.0934025 0.000782507 0)
(0.0932746 0.000809531 0)
(0.0931456 0.000840594 0)
(0.0930154 0.00087626 0)
(0.0928836 0.000917177 0)
(0.0927499 0.000964096 0)
(0.0926142 0.00101789 0)
(0.0924762 0.00107958 0)
(0.0923356 0.00115035 0)
(0.0921922 0.00123161 0)
(0.0920461 0.00132496 0)
(0.0918973 0.00143231 0)
(0.0917458 0.00155583 0)
(0.0915923 0.00169806 0)
(0.0914373 0.0018619 0)
(0.0912821 0.00205063 0)
(0.0911283 0.00226798 0)
(0.0909785 0.00251805 0)
(0.0908361 0.00280532 0)
(0.0907056 0.00313456 0)
(0.0905932 0.00351057 0)
(0.0905069 0.00393798 0)
(0.0904567 0.0044207 0)
(0.0904553 0.00496128 0)
(0.0905175 0.0055599 0)
(0.0906608 0.00621313 0)
(0.090904 0.00691231 0)
(0.0912661 0.00764173 0)
(0.0917636 0.00837698 0)
(0.0924065 0.00908412 0)
(0.0931937 0.00972084 0)
(0.0941077 0.0102411 0)
(0.100001 5.8765e-05 0)
(0.0999873 0.000196366 0)
(0.0999358 0.000352928 0)
(0.099837 0.000464459 0)
(0.0996984 0.000506623 0)
(0.099537 0.000496917 0)
(0.0993689 0.00046675 0)
(0.0992043 0.000439279 0)
(0.0990471 0.000423864 0)
(0.0988971 0.000420417 0)
(0.0987529 0.00042524 0)
(0.0986125 0.000434614 0)
(0.0984745 0.000446043 0)
(0.0983379 0.000458221 0)
(0.098202 0.000470612 0)
(0.0980664 0.000483069 0)
(0.097931 0.000495599 0)
(0.0977957 0.000508241 0)
(0.0976602 0.000521025 0)
(0.0975247 0.000533957 0)
(0.0973891 0.000547014 0)
(0.0972535 0.000560153 0)
(0.0971178 0.000573309 0)
(0.0969821 0.000586401 0)
(0.0968464 0.000599341 0)
(0.0967109 0.000612036 0)
(0.0965755 0.000624398 0)
(0.0964404 0.000636345 0)
(0.0963056 0.000647814 0)
(0.0961712 0.000658755 0)
(0.0960372 0.000669144 0)
(0.0959038 0.00067898 0)
(0.0957709 0.000688288 0)
(0.0956387 0.000697121 0)
(0.0955071 0.000705558 0)
(0.0953763 0.000713704 0)
(0.0952462 0.000721689 0)
(0.0951168 0.000729668 0)
(0.0949882 0.000737815 0)
(0.0948603 0.000746326 0)
(0.0947331 0.000755415 0)
(0.0946065 0.000765314 0)
(0.0944805 0.000776273 0)
(0.0943549 0.000788556 0)
(0.0942298 0.000802447 0)
(0.0941049 0.000818247 0)
(0.0939801 0.000836278 0)
(0.0938553 0.000856887 0)
(0.0937305 0.000880448 0)
(0.0936053 0.000907374 0)
(0.0934797 0.000938118 0)
(0.0933535 0.000973189 0)
(0.0932266 0.00101316 0)
(0.0930989 0.00105869 0)
(0.0929703 0.00111052 0)
(0.0928406 0.00116951 0)
(0.09271 0.00123664 0)
(0.0925784 0.00131305 0)
(0.0924459 0.00140005 0)
(0.092313 0.00149911 0)
(0.0921799 0.00161192 0)
(0.0920474 0.0017404 0)
(0.0919163 0.00188666 0)
(0.0917881 0.00205307 0)
(0.0916644 0.0022422 0)
(0.0915475 0.0024568 0)
(0.0914405 0.00269973 0)
(0.0913473 0.00297388 0)
(0.0912727 0.00328201 0)
(0.0912228 0.00362648 0)
(0.091205 0.00400902 0)
(0.0912278 0.00443027 0)
(0.0913014 0.00488926 0)
(0.0914369 0.00538278 0)
(0.0916462 0.00590468 0)
(0.0919413 0.00644509 0)
(0.0923327 0.00698981 0)
(0.0928282 0.00752 0)
(0.0934305 0.00801252 0)
(0.0941354 0.00844134 0)
(0.0949294 0.00878039 0)
(0.100001 6.02235e-05 0)
(0.0999926 0.000206662 0)
(0.0999529 0.000378283 0)
(0.0998695 0.000506604 0)
(0.0997458 0.000562265 0)
(0.0995956 0.000560374 0)
(0.0994346 0.000532934 0)
(0.0992739 0.000505104 0)
(0.0991187 0.000488172 0)
(0.0989702 0.000483263 0)
(0.0988277 0.00048719 0)
(0.0986894 0.000496316 0)
(0.098554 0.000508038 0)
(0.0984204 0.000520901 0)
(0.098288 0.000534246 0)
(0.0981562 0.000547838 0)
(0.0980249 0.000561627 0)
(0.0978937 0.000575618 0)
(0.0977626 0.000589817 0)
(0.0976316 0.000604216 0)
(0.0975006 0.000618784 0)
(0.0973697 0.000633467 0)
(0.0972388 0.000648197 0)
(0.0971079 0.000662886 0)
(0.0969772 0.000677443 0)
(0.0968465 0.000691772 0)
(0.096716 0.000705782 0)
(0.0965858 0.00071939 0)
(0.0964558 0.000732531 0)
(0.0963261 0.000745156 0)
(0.0961967 0.000757242 0)
(0.0960677 0.000768789 0)
(0.0959391 0.000779825 0)
(0.095811 0.000790405 0)
(0.0956834 0.000800614 0)
(0.0955562 0.000810563 0)
(0.0954296 0.00082039 0)
(0.0953035 0.000830255 0)
(0.0951779 0.000840344 0)
(0.0950529 0.000850863 0)
(0.0949283 0.000862037 0)
(0.0948042 0.000874112 0)
(0.0946806 0.000887348 0)
(0.0945573 0.000902024 0)
(0.0944344 0.000918437 0)
(0.0943117 0.0009369 0)
(0.0941893 0.000957746 0)
(0.094067 0.00098133 0)
(0.0939448 0.00100803 0)
(0.0938226 0.00103827 0)
(0.0937005 0.0010725 0)
(0.0935783 0.00111122 0)
(0.093456 0.00115499 0)
(0.0933338 0.00120444 0)
(0.0932116 0.00126027 0)
(0.0930897 0.00132328 0)
(0.0929681 0.00139438 0)
(0.0928473 0.00147458 0)
(0.0927275 0.00156502 0)
(0.0926095 0.00166696 0)
(0.0924939 0.00178181 0)
(0.0923818 0.00191108 0)
(0.0922744 0.00205642 0)
(0.0921735 0.00221955 0)
(0.0920811 0.00240225 0)
(0.0919998 0.00260627 0)
(0.0919328 0.00283327 0)
(0.0918839 0.00308469 0)
(0.0918577 0.00336159 0)
(0.0918595 0.00366443 0)
(0.0918954 0.00399286 0)
(0.0919723 0.00434542 0)
(0.0920973 0.00471916 0)
(0.0922782 0.00510939 0)
(0.0925224 0.00550929 0)
(0.0928365 0.00590973 0)
(0.0932257 0.00629915 0)
(0.0936925 0.00666384 0)
(0.0942364 0.00698844 0)
(0.094852 0.00725708 0)
(0.0955294 0.00745492 0)
(0.100001 6.09172e-05 0)
(0.0999963 0.000214729 0)
(0.0999659 0.000400465 0)
(0.0998957 0.000545868 0)
(0.0997856 0.000616444 0)
(0.099647 0.000624208 0)
(0.0994943 0.000601071 0)
(0.0993389 0.000573881 0)
(0.0991873 0.000555868 0)
(0.0990416 0.000549545 0)
(0.0989016 0.000552426 0)
(0.098766 0.000561088 0)
(0.0986337 0.000572893 0)
(0.0985035 0.000586269 0)
(0.0983748 0.000600438 0)
(0.098247 0.000615073 0)
(0.0981199 0.000630056 0)
(0.097993 0.000645353 0)
(0.0978665 0.000660941 0)
(0.0977401 0.000676795 0)
(0.0976139 0.000692869 0)
(0.0974877 0.000709104 0)
(0.0973617 0.000725422 0)
(0.0972357 0.000741734 0)
(0.0971099 0.000757945 0)
(0.0969842 0.000773957 0)
(0.0968587 0.000789679 0)
(0.0967333 0.000805029 0)
(0.0966081 0.00081994 0)
(0.0964832 0.000834367 0)
(0.0963584 0.000848285 0)
(0.096234 0.000861697 0)
(0.0961098 0.000874633 0)
(0.0959859 0.000887151 0)
(0.0958623 0.000899336 0)
(0.095739 0.000911304 0)
(0.0956161 0.000923195 0)
(0.0954935 0.000935175 0)
(0.0953713 0.000947435 0)
(0.0952494 0.000960186 0)
(0.095128 0.000973659 0)
(0.0950068 0.000988105 0)
(0.0948861 0.00100379 0)
(0.0947657 0.00102101 0)
(0.0946457 0.00104004 0)
(0.094526 0.00106122 0)
(0.0944067 0.00108487 0)
(0.0942877 0.00111135 0)
(0.0941692 0.00114103 0)
(0.0940511 0.0011743 0)
(0.0939335 0.00121161 0)
(0.0938165 0.00125343 0)
(0.0937002 0.00130026 0)
(0.0935848 0.00135268 0)
(0.0934706 0.00141133 0)
(0.0933578 0.0014769 0)
(0.0932468 0.00155016 0)
(0.0931381 0.00163195 0)
(0.0930324 0.0017232 0)
(0.0929306 0.0018249 0)
(0.0928334 0.00193809 0)
(0.0927424 0.00206386 0)
(0.0926588 0.00220332 0)
(0.0925845 0.00235755 0)
(0.0925218 0.00252754 0)
(0.0924731 0.00271414 0)
(0.0924416 0.00291797 0)
(0.0924305 0.0031393 0)
(0.0924439 0.00337791 0)
(0.092486 0.00363296 0)
(0.0925614 0.00390284 0)
(0.0926751 0.00418494 0)
(0.092832 0.00447555 0)
(0.0930368 0.0047697 0)
(0.0932936 0.00506108 0)
(0.0936056 0.00534209 0)
(0.0939746 0.00560393 0)
(0.0944007 0.00583698 0)
(0.0948815 0.00603126 0)
(0.0954122 0.00617714 0)
(0.0959854 0.00626614 0)
(0.100001 6.1074e-05 0)
(0.0999986 0.000221035 0)
(0.0999751 0.00041995 0)
(0.0999156 0.000582455 0)
(0.0998178 0.000668967 0)
(0.0996906 0.00068791 0)
(0.099547 0.000670523 0)
(0.0993984 0.000645003 0)
(0.0992518 0.000626467 0)
(0.0991099 0.000618916 0)
(0.0989733 0.000620716 0)
(0.0988411 0.000628778 0)
(0.0987123 0.000640505 0)
(0.0985859 0.000654248 0)
(0.0984611 0.000669121 0)
(0.0983375 0.000684706 0)
(0.0982146 0.00070082 0)
(0.0980923 0.000717377 0)
(0.0979703 0.000734327 0)
(0.0978486 0.000751621 0)
(0.0977272 0.0007692 0)
(0.0976059 0.000786994 0)
(0.0974847 0.000804919 0)
(0.0973637 0.000822884 0)
(0.0972428 0.00084079 0)
(0.097122 0.00085854 0)
(0.0970014 0.000876043 0)
(0.0968808 0.000893219 0)
(0.0967605 0.000910002 0)
(0.0966403 0.000926347 0)
(0.0965202 0.000942233 0)
(0.0964002 0.000957662 0)
(0.0962805 0.000972665 0)
(0.0961609 0.000987299 0)
(0.0960414 0.00100165 0)
(0.0959222 0.00101584 0)
(0.0958031 0.00102999 0)
(0.0956843 0.00104429 0)
(0.0955658 0.00105892 0)
(0.0954475 0.00107409 0)
(0.0953295 0.00109003 0)
(0.0952119 0.00110699 0)
(0.0950946 0.00112524 0)
(0.0949777 0.00114506 0)
(0.0948613 0.00116675 0)
(0.0947453 0.0011906 0)
(0.09463 0.00121694 0)
(0.0945153 0.0012461 0)
(0.0944014 0.00127843 0)
(0.0942884 0.0013143 0)
(0.0941765 0.0013541 0)
(0.0940659 0.00139825 0)
(0.0939567 0.00144719 0)
(0.0938494 0.00150142 0)
(0.0937443 0.00156145 0)
(0.0936419 0.00162785 0)
(0.0935426 0.00170121 0)
(0.0934472 0.00178218 0)
(0.0933565 0.00187142 0)
(0.0932714 0.00196961 0)
(0.0931929 0.00207743 0)
(0.0931226 0.00219552 0)
(0.0930618 0.00232447 0)
(0.0930125 0.00246476 0)
(0.0929766 0.0026167 0)
(0.0929565 0.00278041 0)
(0.0929548 0.00295569 0)
(0.0929744 0.00314195 0)
(0.0930183 0.00333817 0)
(0.0930897 0.00354273 0)
(0.093192 0.00375339 0)
(0.0933282 0.00396718 0)
(0.0935016 0.00418032 0)
(0.0937146 0.00438829 0)
(0.0939691 0.00458577 0)
(0.0942664 0.00476683 0)
(0.0946064 0.00492509 0)
(0.0949878 0.00505397 0)
(0.0954081 0.00514709 0)
(0.0958631 0.00519864 0)
(0.0963471 0.00520378 0)
(0.100001 6.09027e-05 0)
(0.0999999 0.000226059 0)
(0.0999812 0.000437283 0)
(0.0999303 0.00061669 0)
(0.0998433 0.000719777 0)
(0.0997269 0.000751079 0)
(0.0995929 0.000740703 0)
(0.099452 0.000717862 0)
(0.0993114 0.000699442 0)
(0.0991745 0.000690973 0)
(0.0990421 0.000691771 0)
(0.0989139 0.000699183 0)
(0.098789 0.000710731 0)
(0.0986666 0.000724728 0)
(0.098546 0.000740205 0)
(0.0984267 0.00075666 0)
(0.0983083 0.000773843 0)
(0.0981905 0.00079162 0)
(0.0980732 0.000809907 0)
(0.0979562 0.00082863 0)
(0.0978395 0.000847715 0)
(0.0977231 0.000867081 0)
(0.0976068 0.000886638 0)
(0.0974906 0.00090629 0)
(0.0973746 0.000925939 0)
(0.0972587 0.000945488 0)
(0.0971429 0.000964846 0)
(0.0970272 0.000983935 0)
(0.0969115 0.00100269 0)
(0.096796 0.00102107 0)
(0.0966805 0.00103906 0)
(0.0965651 0.00105665 0)
(0.0964498 0.00107387 0)
(0.0963345 0.00109078 0)
(0.0962193 0.00110747 0)
(0.0961043 0.00112404 0)
(0.0959893 0.00114063 0)
(0.0958745 0.00115741 0)
(0.09576 0.00117455 0)
(0.0956456 0.00119226 0)
(0.0955316 0.00121078 0)
(0.0954179 0.00123033 0)
(0.0953047 0.00125118 0)
(0.0951919 0.00127359 0)
(0.0950798 0.00129783 0)
(0.0949684 0.0013242 0)
(0.0948579 0.00135298 0)
(0.0947484 0.00138447 0)
(0.0946401 0.00141899 0)
(0.0945333 0.00145685 0)
(0.0944281 0.00149837 0)
(0.0943249 0.00154391 0)
(0.094224 0.00159381 0)
(0.0941258 0.00164846 0)
(0.0940309 0.00170825 0)
(0.0939397 0.00177357 0)
(0.093853 0.00184483 0)
(0.0937714 0.00192245 0)
(0.0936959 0.00200682 0)
(0.0936275 0.00209832 0)
(0.0935672 0.00219725 0)
(0.0935165 0.00230385 0)
(0.0934768 0.00241826 0)
(0.0934497 0.00254045 0)
(0.093437 0.00267021 0)
(0.0934408 0.00280708 0)
(0.093463 0.00295031 0)
(0.093506 0.0030988 0)
(0.0935719 0.00325106 0)
(0.093663 0.00340515 0)
(0.0937814 0.00355867 0)
(0.093929 0.0037087 0)
(0.0941074 0.00385187 0)
(0.0943179 0.00398434 0)
(0.0945611 0.00410192 0)
(0.0948368 0.00420019 0)
(0.0951443 0.00427463 0)
(0.0954819 0.00432089 0)
(0.0958472 0.00433491 0)
(0.0962367 0.00431325 0)
(0.0966463 0.00425317 0)
(0.100001 6.05722e-05 0)
(0.1 0.000230239 0)
(0.099985 0.000453002 0)
(0.0999408 0.000648961 0)
(0.099863 0.000768929 0)
(0.0997568 0.000813432 0)
(0.0996324 0.00081111 0)
(0.0994998 0.000791887 0)
(0.0993661 0.000774262 0)
(0.0992348 0.000765276 0)
(0.0991074 0.000765251 0)
(0.0989838 0.000772052 0)