/*--------------------------------*- C++ -*----------------------------------*\
| =========                 |                                                 |
| \\      /  F ield         | OpenFOAM: The Open Source CFD Toolbox           |
|  \\    /   O peration     | Version:  4.1                                   |
|   \\  /    A nd           | Web:      www.OpenFOAM.org                      |
|    \\/     M anipulation  |                                                 |
\*---------------------------------------------------------------------------*/
FoamFile
{
    version     2.0;
    format      ascii;
    class       surfaceScalarField;
    location    "0.4";
    object      phi;
}
// * * * * * * * * * * * * * * * * * * * * * * * * * * * * * * * * * * * * * //

dimensions      [1 0 -1 0 0 0 0];

internalField   nonuniform List<scalar> 
23692
(
2.32602e-06
9.72009e-10
2.32332e-06
2.70104e-09
2.31895e-06
4.3628e-09
2.31378e-06
5.17787e-09
2.30869e-06
5.08981e-09
2.30417e-06
4.52173e-09
2.30025e-06
3.91688e-09
2.29675e-06
3.50422e-09
2.29344e-06
3.31243e-09
2.29016e-06
3.27601e-09
2.28685e-06
3.31812e-09
2.28346e-06
3.38583e-09
2.28001e-06
3.45252e-09
2.27651e-06
3.50906e-09
2.27296e-06
3.55474e-09
2.26938e-06
3.59191e-09
2.26576e-06
3.62315e-09
2.26212e-06
3.65046e-09
2.25846e-06
3.67487e-09
2.25477e-06
3.69711e-09
2.25107e-06
3.71718e-09
2.24736e-06
3.73492e-09
2.24363e-06
3.74985e-09
2.23989e-06
3.76141e-09
2.23615e-06
3.76901e-09
2.23241e-06
3.772e-09
2.22868e-06
3.7698e-09
2.22496e-06
3.76202e-09
2.22126e-06
3.74839e-09
2.21758e-06
3.72877e-09
2.21393e-06
3.70327e-09
2.21033e-06
3.6722e-09
2.20676e-06
3.63595e-09
2.20324e-06
3.59516e-09
2.19977e-06
3.55065e-09
2.19636e-06
3.50326e-09
2.193e-06
3.45397e-09
2.1897e-06
3.40385e-09
2.18645e-06
3.35402e-09
2.18327e-06
3.3056e-09
2.18013e-06
3.25971e-09
2.17705e-06
3.2175e-09
2.17401e-06
3.18015e-09
2.17101e-06
3.14878e-09
2.16804e-06
3.12453e-09
2.16509e-06
3.10856e-09
2.16216e-06
3.10202e-09
2.15923e-06
3.10612e-09
2.1563e-06
3.12215e-09
2.15334e-06
3.15152e-09
2.15034e-06
3.1958e-09
2.14729e-06
3.25674e-09
2.14416e-06
3.33646e-09
2.14094e-06
3.43737e-09
2.13761e-06
3.56243e-09
2.13412e-06
3.71524e-09
2.13045e-06
3.90009e-09
2.12657e-06
4.12233e-09
2.12243e-06
4.38849e-09
2.11797e-06
4.7067e-09
2.11313e-06
5.08703e-09
2.10785e-06
5.54215e-09
2.10202e-06
6.08803e-09
2.09554e-06
6.74501e-09
2.08826e-06
7.53932e-09
2.08003e-06
8.50507e-09
2.07061e-06
9.68737e-09
2.05974e-06
1.11465e-08
2.04705e-06
1.29646e-08
2.03207e-06
1.5255e-08
2.01417e-06
1.81776e-08
1.99248e-06
2.19612e-08
1.96582e-06
2.69404e-08
1.93249e-06
3.36125e-08
1.89003e-06
4.27307e-08
1.83486e-06
5.54521e-08
1.76157e-06
7.3569e-08
1.66195e-06
9.98919e-08
1.52309e-06
1.39143e-07
1.32322e-06
2.00137e-07
3.06257e-07
1.01724e-06
2.48899e-06
1.96362e-09
2.48616e-06
5.5367e-09
2.48155e-06
8.97389e-09
2.47605e-06
1.06738e-08
2.47063e-06
1.05126e-08
2.46579e-06
9.35558e-09
2.4616e-06
8.11482e-09
2.45784e-06
7.26449e-09
2.45429e-06
6.86654e-09
2.45078e-06
6.7875e-09
2.44723e-06
6.87078e-09
2.44361e-06
7.00761e-09
2.43992e-06
7.14308e-09
2.43618e-06
7.25812e-09
2.43239e-06
7.35137e-09
2.42856e-06
7.42738e-09
2.4247e-06
7.4914e-09
2.42081e-06
7.54731e-09
2.4169e-06
7.59759e-09
2.41297e-06
7.64322e-09
2.40902e-06
7.68455e-09
2.40506e-06
7.72109e-09
2.40108e-06
7.75196e-09
2.39709e-06
7.77593e-09
2.3931e-06
7.79173e-09
2.38911e-06
7.7981e-09
2.38512e-06
7.79389e-09
2.38115e-06
7.77824e-09
2.3772e-06
7.75058e-09
2.37327e-06
7.7107e-09
2.36938e-06
7.65877e-09
2.36552e-06
7.59536e-09
2.36171e-06
7.52142e-09
2.35795e-06
7.43823e-09
2.35424e-06
7.34734e-09
2.35059e-06
7.25065e-09
2.34699e-06
7.1501e-09
2.34346e-06
7.04792e-09
2.33999e-06
6.94634e-09
2.33657e-06
6.84771e-09
2.33321e-06
6.75439e-09
2.3299e-06
6.66869e-09
2.32664e-06
6.59301e-09
2.32342e-06
6.52969e-09
2.32023e-06
6.48107e-09
2.31706e-06
6.44948e-09
2.31391e-06
6.43737e-09
2.31076e-06
6.4472e-09
2.30759e-06
6.48159e-09
2.30441e-06
6.54346e-09
2.30118e-06
6.63595e-09
2.29789e-06
6.76274e-09
2.29453e-06
6.92802e-09
2.29106e-06
7.13686e-09
2.28747e-06
7.39519e-09
2.28372e-06
7.71028e-09
2.27978e-06
8.09093e-09
2.27561e-06
8.54789e-09
2.27116e-06
9.0944e-09
2.26639e-06
9.74677e-09
2.26122e-06
1.05253e-08
2.25558e-06
1.14553e-08
2.24938e-06
1.25685e-08
2.2425e-06
1.39053e-08
2.23481e-06
1.55175e-08
2.22613e-06
1.74719e-08
2.21625e-06
1.9856e-08
2.2049e-06
2.2786e-08
2.19174e-06
2.64179e-08
2.17632e-06
3.09647e-08
2.15808e-06
3.67209e-08
2.13624e-06
4.40997e-08
2.10979e-06
5.36881e-08
2.07737e-06
6.63285e-08
2.03716e-06
8.32356e-08
1.98676e-06
1.06153e-07
1.92311e-06
1.37518e-07
1.84274e-06
1.80554e-07
1.74299e-06
2.39191e-07
1.62706e-06
3.16359e-07
4.01842e-07
1.53177e-06
2.66341e-06
2.95025e-09
2.6605e-06
8.44852e-09
2.65571e-06
1.37583e-08
2.64996e-06
1.64321e-08
2.64422e-06
1.62483e-08
2.63906e-06
1.45139e-08
2.63455e-06
1.26254e-08
2.6305e-06
1.13176e-08
2.62667e-06
1.06954e-08
2.6229e-06
1.05612e-08
2.6191e-06
1.06781e-08
2.61523e-06
1.08801e-08
2.61129e-06
1.10827e-08
2.6073e-06
1.12559e-08
2.60326e-06
1.1397e-08
2.59918e-06
1.15125e-08
2.59507e-06
1.161e-08
2.59094e-06
1.16955e-08
2.58678e-06
1.17723e-08
2.58259e-06
1.18423e-08
2.57839e-06
1.19058e-08
2.57417e-06
1.19619e-08
2.56994e-06
1.20094e-08
2.5657e-06
1.20465e-08
2.56145e-06
1.2071e-08
2.55721e-06
1.20813e-08
2.55297e-06
1.20754e-08
2.54874e-06
1.20521e-08
2.54453e-06
1.20105e-08
2.54035e-06
1.19502e-08
2.53621e-06
1.18717e-08
2.5321e-06
1.17757e-08
2.52803e-06
1.16636e-08
2.52402e-06
1.15375e-08
2.52006e-06
1.13998e-08
2.51616e-06
1.12532e-08
2.51232e-06
1.11009e-08
2.50854e-06
1.09462e-08
2.50482e-06
1.07926e-08
2.50116e-06
1.06437e-08
2.49755e-06
1.0503e-08
2.494e-06
1.03741e-08
2.49049e-06
1.02608e-08
2.48703e-06
1.01666e-08
2.48359e-06
1.0095e-08
2.48018e-06
1.00498e-08
2.47678e-06
1.00346e-08
2.47337e-06
1.00532e-08
2.46996e-06
1.01096e-08
2.46651e-06
1.02083e-08
2.46302e-06
1.0354e-08
2.45947e-06
1.05523e-08
2.45583e-06
1.08097e-08
2.45208e-06
1.11337e-08
2.4482e-06
1.15334e-08
2.44415e-06
1.20197e-08
2.4399e-06
1.26058e-08
2.43542e-06
1.33079e-08
2.43064e-06
1.41456e-08
2.42553e-06
1.51433e-08
2.42001e-06
1.63309e-08
2.41402e-06
1.77457e-08
2.40745e-06
1.94341e-08
2.4002e-06
2.14547e-08
2.39214e-06
2.38818e-08
2.38311e-06
2.68104e-08
2.37291e-06
3.03636e-08
2.36131e-06
3.4702e-08
2.348e-06
4.00377e-08
2.33263e-06
4.66537e-08
2.31473e-06
5.4931e-08
2.29376e-06
6.53869e-08
2.26904e-06
7.87259e-08
2.23978e-06
9.59057e-08
2.20513e-06
1.18212e-07
2.16429e-06
1.47311e-07
2.11692e-06
1.85207e-07
2.06389e-06
2.33901e-07
2.00902e-06
2.94376e-07
1.96227e-06
3.63417e-07
4.24877e-07
1.93955e-06
2.85007e-06
3.90304e-09
2.84716e-06
1.13589e-08
2.8423e-06
1.86192e-08
2.83636e-06
2.23761e-08
2.83034e-06
2.22636e-08
2.82485e-06
2.00051e-08
2.82e-06
1.74818e-08
2.81561e-06
1.57044e-08
2.81147e-06
1.48366e-08
2.80741e-06
1.46268e-08
2.80333e-06
1.47615e-08
2.79919e-06
1.50182e-08
2.795e-06
1.52816e-08
2.79075e-06
1.55095e-08
2.78646e-06
1.56966e-08
2.78213e-06
1.58507e-08
2.77777e-06
1.59816e-08
2.77338e-06
1.60965e-08
2.76896e-06
1.62003e-08
2.76453e-06
1.62948e-08
2.76007e-06
1.63807e-08
2.7556e-06
1.64568e-08
2.75112e-06
1.65214e-08
2.74662e-06
1.65719e-08
2.74212e-06
1.66057e-08
2.73762e-06
1.66202e-08
2.73313e-06
1.66131e-08
2.72865e-06
1.65826e-08
2.72419e-06
1.65275e-08
2.71976e-06
1.64475e-08
2.71536e-06
1.63429e-08
2.71099e-06
1.62149e-08
2.70668e-06
1.60654e-08
2.70241e-06
1.58972e-08
2.6982e-06
1.57134e-08
2.69404e-06
1.55179e-08
2.68994e-06
1.5315e-08
2.68591e-06
1.5109e-08
2.68193e-06
1.49047e-08
2.67801e-06
1.4707e-08
2.67415e-06
1.45207e-08
2.67033e-06
1.43508e-08
2.66656e-06
1.42022e-08
2.66283e-06
1.40797e-08
2.65913e-06
1.39883e-08
2.65544e-06
1.39328e-08
2.65177e-06
1.39182e-08
2.64809e-06
1.39497e-08
2.64439e-06
1.40326e-08
2.64066e-06
1.4173e-08
2.63688e-06
1.43774e-08
2.63303e-06
1.46531e-08
2.62909e-06
1.50087e-08
2.62504e-06
1.54544e-08
2.62084e-06
1.60022e-08
2.61648e-06
1.66664e-08
2.6119e-06
1.74645e-08
2.60709e-06
1.84176e-08
2.60198e-06
1.95514e-08
2.59653e-06
2.08973e-08
2.59067e-06
2.2494e-08
2.58434e-06
2.43888e-08
2.57746e-06
2.66405e-08
2.56991e-06
2.93225e-08
2.56159e-06
3.25262e-08
2.55236e-06
3.63675e-08
2.54206e-06
4.09933e-08
2.53051e-06
4.65914e-08
2.51747e-06
5.34039e-08
2.50272e-06
6.17443e-08
2.48597e-06
7.20194e-08
2.46694e-06
8.47576e-08
2.44537e-06
1.0064e-07
2.42108e-06
1.20529e-07
2.39416e-06
1.45479e-07
2.36512e-06
1.76682e-07
2.3354e-06
2.15267e-07
2.30786e-06
2.61788e-07
2.28745e-06
3.15123e-07
2.28092e-06
3.70282e-07
4.14926e-07
2.2912e-06
3.04984e-06
4.78885e-09
3.04702e-06
1.41802e-08
3.04219e-06
2.34436e-08
3.03616e-06
2.84116e-08
3.02991e-06
2.8512e-08
3.02409e-06
2.58299e-08
3.01886e-06
2.27148e-08
3.01409e-06
2.04663e-08
3.0096e-06
1.93291e-08
3.00522e-06
1.90148e-08
3.00084e-06
1.91429e-08
2.99643e-06
1.94365e-08
2.99196e-06
1.9749e-08
2.98745e-06
2.00244e-08
2.9829e-06
2.02531e-08
2.97832e-06
2.04432e-08
2.97371e-06
2.06057e-08
2.96907e-06
2.07491e-08
2.9644e-06
2.0879e-08
2.95972e-06
2.09977e-08
2.95502e-06
2.11057e-08
2.9503e-06
2.12016e-08
2.94556e-06
2.12831e-08
2.94082e-06
2.13471e-08
2.93607e-06
2.13902e-08
2.93133e-06
2.14093e-08
2.92659e-06
2.14014e-08
2.92186e-06
2.13644e-08
2.91715e-06
2.12968e-08
2.91247e-06
2.11981e-08
2.90782e-06
2.10688e-08
2.9032e-06
2.09104e-08
2.89863e-06
2.07254e-08
2.89411e-06
2.0517e-08
2.88964e-06
2.02896e-08
2.88523e-06
2.00477e-08
2.88087e-06
1.97968e-08
2.87658e-06
1.95425e-08
2.87233e-06
1.92907e-08
2.86815e-06
1.90476e-08
2.86401e-06
1.88193e-08
2.85993e-06
1.86121e-08
2.85588e-06
1.8432e-08
2.85187e-06
1.82854e-08
2.84788e-06
1.81783e-08
2.84391e-06
1.8117e-08
2.83994e-06
1.81076e-08
2.83597e-06
1.81567e-08
2.83197e-06
1.82712e-08
2.82794e-06
1.84583e-08
2.82385e-06
1.87262e-08
2.81968e-06
1.90842e-08
2.81543e-06
1.95428e-08
2.81105e-06
2.01145e-08
2.80653e-06
2.08139e-08
2.80184e-06
2.16587e-08
2.79694e-06
2.26699e-08
2.79179e-06
2.38729e-08
2.78637e-06
2.52985e-08
2.7806e-06
2.69838e-08
2.77445e-06
2.89742e-08
2.76785e-06
3.13248e-08
2.76073e-06
3.41029e-08
2.753e-06
3.73914e-08
2.74458e-06
4.1292e-08
2.73537e-06
4.59308e-08
2.72525e-06
5.1464e-08
2.71412e-06
5.80864e-08
2.70184e-06
6.60404e-08
2.68831e-06
7.56284e-08
2.67347e-06
8.7225e-08
2.6573e-06
1.0129e-07
2.63993e-06
1.18377e-07
2.6217e-06
1.39124e-07
2.60332e-06
1.64219e-07
2.58608e-06
1.94287e-07
2.57205e-06
2.29662e-07
2.56426e-06
2.69934e-07
2.56654e-06
3.13206e-07
2.58215e-06
3.55033e-07
3.875e-07
2.60994e-06
3.26363e-06
5.57465e-09
3.26098e-06
1.68236e-08
3.25632e-06
2.81129e-08
3.25029e-06
3.44341e-08
3.24387e-06
3.49345e-08
3.23772e-06
3.1978e-08
3.23209e-06
2.83473e-08
3.22692e-06
2.56402e-08
3.22204e-06
2.42095e-08
3.2173e-06
2.37551e-08
3.21261e-06
2.38433e-08
3.2079e-06
2.41484e-08
3.20316e-06
2.44925e-08
3.19839e-06
2.48038e-08
3.19358e-06
2.50669e-08
3.18875e-06
2.52883e-08
3.18388e-06
2.54793e-08
3.179e-06
2.56491e-08
3.17409e-06
2.58034e-08
3.16916e-06
2.59449e-08
3.16422e-06
2.60738e-08
3.15926e-06
2.61886e-08
3.15428e-06
2.62862e-08
3.1493e-06
2.63632e-08
3.14432e-06
2.64155e-08
3.13933e-06
2.64392e-08
3.13436e-06
2.6431e-08
3.12939e-06
2.63883e-08
3.12444e-06
2.63095e-08
3.11952e-06
2.61938e-08
3.11462e-06
2.6042e-08
3.10977e-06
2.58558e-08
3.10495e-06
2.56383e-08
3.10018e-06
2.53934e-08
3.09546e-06
2.5126e-08
3.09079e-06
2.48419e-08
3.08617e-06
2.45475e-08
3.08161e-06
2.42495e-08
3.0771e-06
2.39551e-08
3.07264e-06
2.36717e-08
3.06822e-06
2.34065e-08
3.06386e-06
2.31671e-08
3.05952e-06
2.29609e-08
3.05522e-06
2.27954e-08
3.05094e-06
2.2678e-08
3.04666e-06
2.26159e-08
3.04239e-06
2.26169e-08
3.03811e-06
2.26885e-08
3.0338e-06
2.28388e-08
3.02945e-06
2.30768e-08
3.02504e-06
2.34119e-08
3.02055e-06
2.3855e-08
3.01597e-06
2.44184e-08
3.01128e-06
2.51167e-08
3.00643e-06
2.59666e-08
3.00142e-06
2.69884e-08
2.99621e-06
2.8206e-08
2.99077e-06
2.96481e-08
2.98506e-06
3.13489e-08
2.97904e-06
3.33496e-08
2.97267e-06
3.56996e-08
2.96589e-06
3.84581e-08
2.95866e-06
4.16966e-08
2.95092e-06
4.55008e-08
2.94261e-06
4.99744e-08
2.93367e-06
5.52422e-08
2.92406e-06
6.14544e-08
2.91373e-06
6.8792e-08
2.90268e-06
7.74713e-08
2.89095e-06
8.77488e-08
2.87863e-06
9.99247e-08
2.86597e-06
1.14341e-07
2.85336e-06
1.31373e-07
2.84148e-06
1.51398e-07
2.83134e-06
1.74744e-07
2.82444e-06
2.01575e-07
2.82279e-06
2.31703e-07
2.8288e-06
2.64304e-07
2.84487e-06
2.97526e-07
2.87217e-06
3.28112e-07
3.51388e-07
2.90867e-06
3.49241e-06
6.2338e-09
3.49002e-06
1.92114e-08
3.48562e-06
3.25171e-08
3.47972e-06
4.03391e-08
3.47319e-06
4.14627e-08
3.46674e-06
3.84251e-08
3.4607e-06
3.43882e-08
3.45509e-06
3.12513e-08
3.4498e-06
2.95066e-08
3.44468e-06
2.88723e-08
3.43965e-06
2.88807e-08
3.43464e-06
2.91653e-08
3.42962e-06
2.95179e-08
3.42458e-06
2.98497e-08
3.41952e-06
3.01369e-08
3.41443e-06
3.03828e-08
3.40933e-06
3.05975e-08
3.4042e-06
3.07899e-08
3.39905e-06
3.09659e-08
3.39389e-06
3.11279e-08
3.38871e-06
3.12758e-08
3.38352e-06
3.14077e-08
3.37832e-06
3.15203e-08
3.37311e-06
3.16092e-08
3.3679e-06
3.167e-08
3.36269e-06
3.16983e-08
3.35749e-06
3.16902e-08
3.35229e-06
3.16429e-08
3.34712e-06
3.15543e-08
3.34197e-06
3.1424e-08
3.33684e-06
3.12527e-08
3.33175e-06
3.10424e-08
3.32669e-06
3.07965e-08
3.32168e-06
3.05197e-08
3.31671e-06
3.02177e-08
3.31178e-06
2.98971e-08
3.30691e-06
2.95652e-08
3.30208e-06
2.92299e-08
3.2973e-06
2.88994e-08
3.29257e-06
2.85821e-08
3.28787e-06
2.82866e-08
3.28322e-06
2.80216e-08
3.27859e-06
2.77957e-08
3.27399e-06
2.76174e-08
3.2694e-06
2.74953e-08
3.26482e-06
2.7438e-08
3.26024e-06
2.7454e-08
3.25564e-06
2.75522e-08
3.25101e-06
2.77419e-08
3.24634e-06
2.8033e-08
3.24161e-06
2.84364e-08
3.23681e-06
2.89642e-08
3.23191e-06
2.96301e-08
3.2269e-06
3.04501e-08
3.22176e-06
3.14427e-08
3.21646e-06
3.26298e-08
3.21097e-06
3.40372e-08
3.20528e-06
3.56953e-08
3.19935e-06
3.764e-08
3.19316e-06
3.99142e-08
3.18667e-06
4.2568e-08
3.17984e-06
4.5661e-08
3.17266e-06
4.92631e-08
3.1651e-06
5.34568e-08
3.15713e-06
5.83385e-08
3.14875e-06
6.40209e-08
3.13997e-06
7.06348e-08
3.13084e-06
7.83306e-08
3.12144e-06
8.72791e-08
3.11193e-06
9.76699e-08
3.10256e-06
1.09708e-07
3.09371e-06
1.23603e-07
3.08595e-06
1.39551e-07
3.08006e-06
1.57703e-07
3.07711e-06
1.78109e-07
3.07846e-06
2.00639e-07
3.08571e-06
2.24863e-07
3.10052e-06
2.49904e-07
3.12418e-06
2.74283e-07
3.15685e-06
2.95852e-07
3.11977e-07
3.19667e-06
3.73723e-06
6.75071e-09
3.73515e-06
2.12885e-08
3.7311e-06
3.65696e-08
3.7254e-06
4.60335e-08
3.71884e-06
4.80241e-08
3.71214e-06
4.51311e-08
3.7057e-06
4.08268e-08
3.69965e-06
3.73081e-08
3.69392e-06
3.52364e-08
3.68841e-06
3.43825e-08
3.68303e-06
3.42678e-08
3.6777e-06
3.44951e-08
3.6724e-06
3.48292e-08
3.66709e-06
3.51625e-08
3.66178e-06
3.54608e-08
3.65645e-06
3.57221e-08
3.6511e-06
3.59539e-08
3.64575e-06
3.61642e-08
3.64037e-06
3.63578e-08
3.63499e-06
3.6537e-08
3.62959e-06
3.67012e-08
3.62418e-06
3.6848e-08
3.61876e-06
3.69734e-08
3.61333e-06
3.70729e-08
3.60791e-06
3.71413e-08
3.60248e-06
3.71738e-08
3.59707e-06
3.71663e-08
3.59166e-06
3.71154e-08
3.58627e-06
3.70193e-08
3.5809e-06
3.68771e-08
3.57555e-06
3.66899e-08
3.57023e-06
3.64599e-08
3.56495e-06
3.6191e-08
3.5597e-06
3.58884e-08
3.55449e-06
3.55584e-08
3.54932e-06
3.52083e-08
3.54419e-06
3.48464e-08
3.5391e-06
3.44814e-08
3.53405e-06
3.41225e-08
3.52904e-06
3.37792e-08
3.52407e-06
3.34611e-08
3.51912e-06
3.31779e-08
3.5142e-06
3.29392e-08
3.5093e-06
3.27546e-08
3.50441e-06
3.26336e-08
3.49952e-06
3.25858e-08
3.49462e-06
3.26208e-08
3.48971e-06
3.27483e-08
3.48476e-06
3.29786e-08
3.47978e-06
3.33225e-08
3.47474e-06
3.37916e-08
3.46963e-06
3.43991e-08
3.46443e-06
3.51595e-08
3.45914e-06
3.60896e-08
3.45372e-06
3.72088e-08
3.44818e-06
3.85396e-08
3.44248e-06
4.01081e-08
3.43661e-06
4.1945e-08
3.43055e-06
4.40859e-08
3.42428e-06
4.65723e-08
3.4178e-06
4.9452e-08
3.41109e-06
5.27805e-08
3.40414e-06
5.66213e-08
3.39697e-06
6.1047e-08
3.38959e-06
6.61396e-08
3.38204e-06
7.19909e-08
3.3744e-06
7.87025e-08
3.36678e-06
8.63842e-08
3.35934e-06
9.51519e-08
3.35233e-06
1.05122e-07
3.34607e-06
1.16405e-07
3.34102e-06
1.2909e-07
3.33779e-06
1.43229e-07
3.33712e-06
1.58808e-07
3.33997e-06
1.75708e-07
3.34739e-06
1.93658e-07
3.36052e-06
2.12175e-07
3.38036e-06
2.30506e-07
3.40749e-06
2.47592e-07
3.44167e-06
2.62103e-07
2.72596e-07
3.48149e-06
3.99918e-06
7.12412e-09
3.99744e-06
2.303e-08
3.99379e-06
4.02182e-08
3.98838e-06
5.14464e-08
3.98186e-06
5.45482e-08
3.97495e-06
5.2042e-08
3.96814e-06
4.76313e-08
3.96166e-06
4.37974e-08
3.9555e-06
4.13981e-08
3.94959e-06
4.02905e-08
3.94385e-06
4.001e-08
3.93821e-06
4.01421e-08
3.93262e-06
4.04278e-08
3.92705e-06
4.07409e-08
3.92148e-06
4.10351e-08
3.91592e-06
4.13009e-08
3.91034e-06
4.15419e-08
3.90476e-06
4.17637e-08
3.89917e-06
4.19702e-08
3.89356e-06
4.21625e-08
3.88795e-06
4.23395e-08
3.88233e-06
4.24982e-08
3.87671e-06
4.26343e-08
3.87108e-06
4.27424e-08
3.86546e-06
4.28174e-08
3.85983e-06
4.28538e-08
3.85421e-06
4.28472e-08
3.8486e-06
4.27942e-08
3.84301e-06
4.26928e-08
3.83743e-06
4.25421e-08
3.83187e-06
4.23433e-08
3.82634e-06
4.2099e-08
3.82084e-06
4.18133e-08
3.81536e-06
4.14917e-08
3.80991e-06
4.11413e-08
3.8045e-06
4.07699e-08
3.79912e-06
4.03865e-08
3.79378e-06
4.00005e-08
3.78847e-06
3.9622e-08
3.78318e-06
3.92612e-08
3.77793e-06
3.89287e-08
3.77269e-06
3.86349e-08
3.76748e-06
3.83904e-08
3.76228e-06
3.82056e-08
3.75708e-06
3.80908e-08
3.75189e-06
3.80563e-08
3.74668e-06
3.81125e-08
3.74146e-06
3.82697e-08
3.73621e-06
3.85388e-08
3.73093e-06
3.8931e-08
3.7256e-06
3.94587e-08
3.72021e-06
4.01351e-08
3.71475e-06
4.09752e-08
3.70921e-06
4.19956e-08
3.70358e-06
4.32157e-08
3.69785e-06
4.46572e-08
3.692e-06
4.63454e-08
3.68604e-06
4.83092e-08
3.67996e-06
5.05815e-08
3.67375e-06
5.32e-08
3.66742e-06
5.62069e-08
3.66098e-06
5.96499e-08
3.65446e-06
6.35817e-08
3.64789e-06
6.806e-08
3.64133e-06
7.31472e-08
3.63487e-06
7.89092e-08
3.62861e-06
8.54137e-08
3.62273e-06
9.27273e-08
3.61743e-06
1.00911e-07
3.61301e-06
1.10016e-07
3.60981e-06
1.20071e-07
3.60829e-06
1.31076e-07
3.60901e-06
1.42984e-07
3.6126e-06
1.55684e-07
3.6198e-06
1.6898e-07
3.63136e-06
1.82568e-07
3.64799e-06
1.96014e-07
3.67023e-06
2.08741e-07
3.69825e-06
2.20043e-07
3.73169e-06
2.29128e-07
2.3522e-07
3.76953e-06
4.27946e-06
7.3665e-09
4.27805e-06
2.44434e-08
4.27482e-06
4.34491e-08
4.26973e-06
5.65354e-08
4.2633e-06
6.09734e-08
4.25625e-06
5.90946e-08
4.24914e-06
5.47504e-08
4.24225e-06
5.06855e-08
4.23568e-06
4.79731e-08
4.22938e-06
4.65882e-08
4.22329e-06
4.61048e-08
4.21733e-06
4.61051e-08
4.21146e-06
4.63124e-08
4.20562e-06
4.65827e-08
4.19981e-06
4.68559e-08
4.19401e-06
4.71138e-08
4.18821e-06
4.73547e-08
4.18241e-06
4.75811e-08
4.17661e-06
4.77947e-08
4.1708e-06
4.79954e-08
4.16499e-06
4.81813e-08
4.15917e-06
4.83487e-08
4.15335e-06
4.84927e-08
4.14753e-06
4.86077e-08
4.14171e-06
4.86879e-08
4.1359e-06
4.87279e-08
4.13009e-06
4.8723e-08
4.12429e-06
4.86696e-08
4.1185e-06
4.85655e-08
4.11272e-06
4.84101e-08
4.10697e-06
4.82047e-08
4.10123e-06
4.79518e-08
4.09551e-06
4.7656e-08
4.08981e-06
4.73232e-08
4.08414e-06
4.69606e-08
4.07849e-06
4.65766e-08
4.07287e-06
4.61807e-08
4.06727e-06
4.57829e-08
4.0617e-06
4.53937e-08
4.05615e-06
4.50241e-08
4.05061e-06
4.46853e-08
4.0451e-06
4.43883e-08
4.0396e-06
4.41443e-08
4.0341e-06
4.39643e-08
4.02861e-06
4.38592e-08
4.02312e-06
4.38397e-08
4.01762e-06
4.39165e-08
4.01211e-06
4.41005e-08
4.00658e-06
4.44026e-08
4.00102e-06
4.48342e-08
3.99543e-06
4.54074e-08
3.98979e-06
4.61354e-08
3.98411e-06
4.70323e-08
3.97839e-06
4.81143e-08
3.9726e-06
4.9399e-08
3.96676e-06
5.09068e-08
3.96087e-06
5.26601e-08
3.95492e-06
5.46843e-08
3.94893e-06
5.70079e-08
3.94292e-06
5.9662e-08
3.9369e-06
6.26809e-08
3.9309e-06
6.61013e-08
3.92499e-06
6.99622e-08
3.91922e-06
7.4304e-08
3.91367e-06
7.91669e-08
3.90847e-06
8.45896e-08
3.90377e-06
9.06065e-08
3.89974e-06
9.72446e-08
3.89663e-06
1.04519e-07
3.89471e-06
1.12427e-07
3.89434e-06
1.20942e-07
3.8959e-06
1.30005e-07
3.89987e-06
1.39517e-07
3.90673e-06
1.49325e-07
3.91699e-06
1.59221e-07
3.93113e-06
1.68926e-07
3.94955e-06
1.78095e-07
3.97247e-06
1.8632e-07
3.99987e-06
1.9315e-07
4.03136e-06
1.98131e-07
2.00854e-07
4.06622e-06
4.57934e-06
7.50055e-09
4.57822e-06
2.55625e-08
4.57539e-06
4.62835e-08
4.57064e-06
6.12876e-08
4.56436e-06
6.72517e-08
4.55723e-06
6.62228e-08
4.54987e-06
6.21196e-08
4.54263e-06
5.79212e-08
4.53568e-06
5.4927e-08
4.52902e-06
5.32548e-08
4.52259e-06
5.25406e-08
4.51632e-06
5.23776e-08
4.51016e-06
5.24787e-08
4.50407e-06
5.26835e-08
4.49802e-06
5.29185e-08
4.49199e-06
5.31555e-08
4.48597e-06
5.33863e-08
4.47996e-06
5.36093e-08
4.47396e-06
5.38238e-08
4.46795e-06
5.40279e-08
4.46194e-06
5.42186e-08
4.45594e-06
5.43913e-08
4.44993e-06
5.45407e-08
4.44393e-06
5.46607e-08
4.43792e-06
5.47453e-08
4.43192e-06
5.47888e-08
4.42593e-06
5.47863e-08
4.41994e-06
5.47343e-08
4.41397e-06
5.46307e-08
4.408e-06
5.44748e-08
4.40205e-06
5.42678e-08
4.39611e-06
5.40127e-08
4.39018e-06
5.37139e-08
4.38427e-06
5.33776e-08
4.37837e-06
5.30112e-08
4.3725e-06
5.26235e-08
4.36664e-06
5.2224e-08
4.36079e-06
5.18232e-08
4.35496e-06
5.1432e-08
4.34915e-06
5.10616e-08
4.34335e-06
5.07236e-08
4.33756e-06
5.04295e-08
4.33178e-06
5.01907e-08
4.32601e-06
5.00185e-08
4.32024e-06
4.99241e-08
4.31447e-06
4.99183e-08
4.3087e-06
5.00119e-08
4.30292e-06
5.02156e-08
4.29714e-06
5.054e-08
4.29134e-06
5.09962e-08
4.28553e-06
5.15955e-08
4.2797e-06
5.235e-08
4.27386e-06
5.32728e-08
4.26801e-06
5.4378e-08
4.26216e-06
5.56811e-08
4.2563e-06
5.71993e-08
4.25045e-06
5.89511e-08
4.24464e-06
6.09571e-08
4.23887e-06
6.32391e-08
4.23318e-06
6.58205e-08
4.22762e-06
6.87256e-08
4.22223e-06
7.19788e-08
4.21708e-06
7.56042e-08
4.21226e-06
7.9624e-08
4.20788e-06
8.40571e-08
4.20406e-06
8.89173e-08
4.20097e-06
9.42103e-08
4.19881e-06
9.99313e-08
4.19779e-06
1.06061e-07
4.19818e-06
1.12562e-07
4.20027e-06
1.19375e-07
4.2044e-06
1.26411e-07
4.21089e-06
1.33553e-07
4.2201e-06
1.40647e-07
4.23235e-06
1.47503e-07
4.24791e-06
1.53899e-07
4.26696e-06
1.5958e-07
4.28953e-06
1.64274e-07
4.31551e-06
1.67707e-07
4.34454e-06
1.69624e-07
1.6982e-07
4.3761e-06
4.90019e-06
7.55367e-09
4.89932e-06
2.64383e-08
4.89683e-06
4.87677e-08
4.89241e-06
6.57152e-08
4.88631e-06
7.33522e-08
4.87917e-06
7.33657e-08
4.87162e-06
6.96694e-08
4.8641e-06
6.5443e-08
4.85681e-06
6.22133e-08
4.84981e-06
6.02592e-08
4.84306e-06
5.92978e-08
4.8365e-06
5.89477e-08
4.83007e-06
5.89183e-08
4.82372e-06
5.90371e-08
4.81743e-06
5.92171e-08
4.81118e-06
5.942e-08
4.80496e-06
5.96305e-08
4.79874e-06
5.98421e-08
4.79254e-06
6.0051e-08
4.78634e-06
6.02534e-08
4.78015e-06
6.04448e-08
4.77396e-06
6.06197e-08
4.76777e-06
6.07722e-08
4.76159e-06
6.08957e-08
4.75541e-06
6.09839e-08
4.74923e-06
6.10312e-08
4.74306e-06
6.10325e-08
4.73689e-06
6.09843e-08
4.73073e-06
6.08844e-08
4.72458e-06
6.07323e-08
4.71843e-06
6.05291e-08
4.71229e-06
6.02779e-08
4.70616e-06
5.99831e-08
4.70004e-06
5.96509e-08
4.69393e-06
5.92887e-08
4.68783e-06
5.89054e-08
4.68173e-06
5.85105e-08
4.67565e-06
5.81146e-08
4.66957e-06
5.77286e-08
4.66351e-06
5.73639e-08
4.65745e-06
5.70321e-08
4.65141e-06
5.67448e-08
4.64536e-06
5.65135e-08
4.63933e-06
5.63493e-08
4.63331e-06
5.62633e-08
4.62729e-06
5.62662e-08
4.62127e-06
5.63681e-08
4.61527e-06
5.65794e-08
4.60927e-06
5.69098e-08
4.60328e-06
5.73694e-08
4.59731e-06
5.79683e-08
4.59136e-06
5.87168e-08
4.58543e-06
5.96259e-08
4.57954e-06
6.07072e-08
4.5737e-06
6.19728e-08
4.56792e-06
6.34359e-08
4.56223e-06
6.51102e-08
4.55666e-06
6.701e-08
4.55124e-06
6.915e-08
4.54602e-06
7.15446e-08
4.54105e-06
7.42074e-08
4.53639e-06
7.71507e-08
4.53213e-06
8.03841e-08
4.52838e-06
8.39132e-08
4.52523e-06
8.77387e-08
4.52284e-06
9.18539e-08
4.52135e-06
9.62432e-08
4.52095e-06
1.0088e-07
4.52184e-06
1.05723e-07
4.52425e-06
1.10718e-07
4.52839e-06
1.15789e-07
4.53452e-06
1.20843e-07
4.54287e-06
1.25766e-07
4.55366e-06
1.30423e-07
4.56706e-06
1.34662e-07
4.58321e-06
1.38316e-07
4.60214e-06
1.41211e-07
4.62381e-06
1.43175e-07
4.64803e-06
1.44047e-07
4.67452e-06
1.43693e-07
1.42021e-07
4.70288e-06
5.24348e-06
7.55306e-09
5.24279e-06
2.71283e-08
5.2406e-06
5.09622e-08
5.23647e-06
6.98489e-08
5.23056e-06
7.92602e-08
5.22346e-06
8.0472e-08
5.2158e-06
7.73323e-08
5.20806e-06
7.31855e-08
5.20049e-06
6.97789e-08
5.19319e-06
6.75628e-08
5.18615e-06
6.63502e-08
5.1793e-06
6.57976e-08
5.17261e-06
6.56195e-08
5.16602e-06
6.56345e-08
5.15951e-06
6.57443e-08
5.15304e-06
6.59008e-08
5.14661e-06
6.60809e-08
5.1402e-06
6.62733e-08
5.1338e-06
6.64704e-08
5.12742e-06
6.66662e-08
5.12104e-06
6.68545e-08
5.11468e-06
6.70288e-08
5.10831e-06
6.71824e-08
5.10195e-06
6.73084e-08
5.0956e-06
6.74002e-08
5.08925e-06
6.7452e-08
5.0829e-06
6.74587e-08
5.07655e-06
6.74169e-08
5.07021e-06
6.73243e-08
5.06388e-06
6.71803e-08
5.05754e-06
6.69862e-08
5.05121e-06
6.67447e-08
5.04488e-06
6.64604e-08
5.03855e-06
6.6139e-08
5.03222e-06
6.57881e-08
5.0259e-06
6.5416e-08
5.01958e-06
6.50323e-08
5.01327e-06
6.46473e-08
5.00696e-06
6.42718e-08
5.00066e-06
6.39169e-08
4.99437e-06
6.3594e-08
4.98808e-06
6.33145e-08
4.9818e-06
6.30894e-08
4.97554e-06
6.29297e-08
4.96928e-06
6.28456e-08
4.96305e-06
6.28473e-08
4.95684e-06
6.29442e-08
4.95065e-06
6.31453e-08
4.94449e-06
6.34593e-08
4.93837e-06
6.38946e-08
4.93231e-06
6.44595e-08
4.9263e-06
6.51619e-08
4.92036e-06
6.60102e-08
4.91452e-06
6.70126e-08
4.90879e-06
6.81774e-08
4.9032e-06
6.95129e-08
4.89778e-06
7.10274e-08
4.89257e-06
7.27288e-08
4.88762e-06
7.46239e-08
4.88297e-06
7.67186e-08
4.8787e-06
7.90164e-08
4.87488e-06
8.15183e-08
4.8716e-06
8.42215e-08
4.86895e-06
8.71184e-08
4.86706e-06
9.01955e-08
4.86606e-06
9.3432e-08
4.86608e-06
9.67986e-08
4.86729e-06
1.00256e-07
4.86984e-06
1.03755e-07
4.87392e-06
1.07233e-07
4.87968e-06
1.10616e-07
4.8873e-06
1.13818e-07
4.89692e-06
1.16741e-07
4.90866e-06
1.19278e-07
4.92261e-06
1.21315e-07
4.93878e-06
1.22737e-07
4.95716e-06
1.23431e-07
4.97764e-06
1.23294e-07
5.00004e-06
1.2224e-07
5.02412e-06
1.20205e-07
1.17153e-07
5.04958e-06
5.6108e-06
7.52202e-09
5.61024e-06
2.76883e-08
5.60827e-06
5.29315e-08
5.60439e-06
7.37302e-08
5.59867e-06
8.49754e-08
5.59164e-06
8.75034e-08
5.58393e-06
8.50485e-08
5.57603e-06
8.10851e-08
5.56825e-06
7.7568e-08
5.56069e-06
7.51217e-08
5.55338e-06
7.36659e-08
5.54628e-06
7.2905e-08
5.53934e-06
7.25659e-08
5.53252e-06
7.24636e-08
5.52579e-06
7.24906e-08
5.51912e-06
7.25895e-08
5.51248e-06
7.27303e-08
5.50588e-06
7.28961e-08
5.49931e-06
7.30757e-08
5.49274e-06
7.32605e-08
5.48619e-06
7.34425e-08
5.47965e-06
7.3614e-08
5.47311e-06
7.37674e-08
5.46658e-06
7.38954e-08
5.46005e-06
7.39911e-08
5.45353e-06
7.40487e-08
5.44701e-06
7.40629e-08
5.44049e-06
7.40303e-08
5.43397e-06
7.39485e-08
5.42745e-06
7.3817e-08
5.42093e-06
7.36366e-08
5.4144e-06
7.341e-08
5.40788e-06
7.31414e-08
5.40135e-06
7.28363e-08
5.39482e-06
7.25018e-08
5.38829e-06
7.21459e-08
5.38176e-06
7.17777e-08
5.37523e-06
7.14071e-08
5.3687e-06
7.10444e-08
5.36218e-06
7.07003e-08
5.35567e-06
7.03856e-08
5.34917e-06
7.0111e-08
5.34269e-06
6.9887e-08
5.33623e-06
6.97236e-08
5.32979e-06
6.96302e-08
5.32339e-06
6.96157e-08
5.31703e-06
6.96884e-08
5.31072e-06
6.98558e-08
5.30446e-06
7.01248e-08
5.29829e-06
7.05017e-08
5.2922e-06
7.09924e-08
5.28622e-06
7.16023e-08
5.28037e-06
7.23363e-08
5.27467e-06
7.31992e-08
5.26915e-06
7.41948e-08
5.26385e-06
7.53268e-08
5.25881e-06
7.65977e-08
5.25406e-06
7.80089e-08
5.24968e-06
7.95605e-08
5.2457e-06
8.12501e-08
5.24221e-06
8.30731e-08
5.23929e-06
8.50211e-08
5.23701e-06
8.7082e-08
5.23548e-06
8.92388e-08
5.23481e-06
9.14688e-08
5.2351e-06
9.37432e-08
5.23648e-06
9.60261e-08
5.23908e-06
9.82742e-08
5.24301e-06
1.00437e-07
5.24841e-06
1.02455e-07
5.25539e-06
1.04263e-07
5.26405e-06
1.0579e-07
5.27446e-06
1.06957e-07
5.28668e-06
1.07688e-07
5.30072e-06
1.07901e-07
5.31657e-06
1.07523e-07
5.33414e-06
1.06485e-07
5.35333e-06
1.04732e-07
5.37398e-06
1.02221e-07
5.39588e-06
9.89306e-08
9.48561e-08
5.4188e-06
6.00381e-06
7.47893e-09
6.00333e-06
2.81672e-08
6.00153e-06
5.47368e-08
5.99786e-06
7.74046e-08
5.99232e-06
9.05082e-08
5.9854e-06
9.44337e-08
5.97768e-06
9.27681e-08
5.96968e-06
8.90835e-08
5.96173e-06
8.55254e-08
5.95397e-06
8.28901e-08
5.94643e-06
8.12089e-08
5.9391e-06
8.02425e-08
5.93193e-06
7.97372e-08
5.9249e-06
7.95087e-08
5.91796e-06
7.94431e-08
5.91109e-06
7.94756e-08
5.90427e-06
7.95693e-08
5.89749e-06
7.97023e-08
5.89073e-06
7.98596e-08
5.884e-06
8.00297e-08
5.87727e-06
8.02028e-08
5.87056e-06
8.03698e-08
5.86386e-06
8.05224e-08
5.85716e-06
8.06525e-08
5.85047e-06
8.07532e-08
5.84378e-06
8.08181e-08
5.83708e-06
8.08422e-08
5.83039e-06
8.08216e-08
5.82369e-06
8.0754e-08
5.81699e-06
8.06384e-08
5.81029e-06
8.04756e-08
5.80358e-06
8.02678e-08
5.79687e-06
8.00187e-08
5.79015e-06
7.97334e-08
5.78342e-06
7.94183e-08
5.7767e-06
7.9081e-08
5.76997e-06
7.87297e-08
5.76325e-06
7.83738e-08
5.75653e-06
7.80229e-08
5.74982e-06
7.76867e-08
5.74312e-06
7.73753e-08
5.73645e-06
7.70985e-08
5.7298e-06
7.68656e-08
5.72319e-06
7.66855e-08
5.71662e-06
7.65662e-08
5.7101e-06
7.65152e-08
5.70365e-06
7.6539e-08
5.69728e-06
7.66433e-08
5.69101e-06
7.68328e-08
5.68485e-06
7.71116e-08
5.67883e-06
7.74827e-08
5.67297e-06
7.79487e-08
5.66729e-06
7.85112e-08
5.66183e-06
7.91709e-08
5.65663e-06
7.99278e-08
5.65171e-06
8.07806e-08
5.64714e-06
8.17269e-08
5.64295e-06
8.27625e-08
5.6392e-06
8.38813e-08
5.63596e-06
8.50749e-08
5.6333e-06
8.63321e-08
5.63129e-06
8.76382e-08
5.63001e-06
8.89749e-08
5.62955e-06
9.03198e-08
5.63e-06
9.16459e-08
5.63146e-06
9.29213e-08
5.63402e-06
9.41094e-08
5.63777e-06
9.51685e-08
5.6428e-06
9.60525e-08
5.6492e-06
9.67112e-08
5.65703e-06
9.70913e-08
5.66634e-06
9.71372e-08
5.67717e-06
9.67932e-08
5.68951e-06
9.60047e-08
5.70336e-06
9.47206e-08
5.71865e-06
9.28958e-08
5.7353e-06
9.04938e-08
5.75321e-06
8.74884e-08
5.77222e-06
8.38663e-08
5.79219e-06
7.96272e-08
7.4783e-08
5.81292e-06
6.42435e-06
7.43685e-09
6.42391e-06
2.86047e-08
6.42221e-06
5.64319e-08
6.4187e-06
8.09166e-08
6.41334e-06
9.58754e-08
6.40653e-06
1.01248e-07
6.39884e-06
1.00451e-07
6.3908e-06
9.71291e-08
6.38273e-06
9.35983e-08
6.37481e-06
9.08203e-08
6.36708e-06