/*--------------------------------*- C++ -*----------------------------------*\
| =========                 |                                                 |
| \\      /  F ield         | OpenFOAM: The Open Source CFD Toolbox           |
|  \\    /   O peration     | Version:  4.1                                   |
|   \\  /    A nd           | Web:      www.OpenFOAM.org                      |
|    \\/     M anipulation  |                                                 |
\*---------------------------------------------------------------------------*/
FoamFile
{
    version     2.0;
    format      ascii;
    class       volVectorField;
    location    "0.4";
    object      U;
}
// * * * * * * * * * * * * * * * * * * * * * * * * * * * * * * * * * * * * * //

dimensions      [0 1 -1 0 0 0 0];

internalField   nonuniform List<vector> 
12013
(
(0.0999932 3.93191e-06 0)
(0.0999225 1.11685e-05 0)
(0.0997639 1.83889e-05 0)
(0.0995477 2.22474e-05 0)
(0.099319 2.22932e-05 0)
(0.0991101 2.01903e-05 0)
(0.0989301 1.78332e-05 0)
(0.0987733 1.62738e-05 0)
(0.0986289 1.56967e-05 0)
(0.0984887 1.58435e-05 0)
(0.0983476 1.63777e-05 0)
(0.0982038 1.70553e-05 0)
(0.0980569 1.77475e-05 0)
(0.0979074 1.84066e-05 0)
(0.0977558 1.90265e-05 0)
(0.0976025 1.96172e-05 0)
(0.0974479 2.01906e-05 0)
(0.097292 2.07568e-05 0)
(0.0971352 2.13207e-05 0)
(0.0969775 2.18861e-05 0)
(0.096819 2.24525e-05 0)
(0.0966598 2.30185e-05 0)
(0.0965001 2.35804e-05 0)
(0.09634 2.4134e-05 0)
(0.0961797 2.46744e-05 0)
(0.0960193 2.51959e-05 0)
(0.0958592 2.56928e-05 0)
(0.0956995 2.61608e-05 0)
(0.0955406 2.65954e-05 0)
(0.0953827 2.69935e-05 0)
(0.0952261 2.73532e-05 0)
(0.0950711 2.76741e-05 0)
(0.0949179 2.79568e-05 0)
(0.0947668 2.82039e-05 0)
(0.0946179 2.84197e-05 0)
(0.0944714 2.86087e-05 0)
(0.0943275 2.8778e-05 0)
(0.0941862 2.89351e-05 0)
(0.0940476 2.90892e-05 0)
(0.0939115 2.925e-05 0)
(0.0937781 2.94283e-05 0)
(0.0936471 2.96356e-05 0)
(0.0935183 2.9885e-05 0)
(0.0933916 3.01897e-05 0)
(0.0932667 3.05642e-05 0)
(0.0931432 3.10242e-05 0)
(0.0930209 3.15867e-05 0)
(0.0928991 3.22702e-05 0)
(0.0927776 3.30953e-05 0)
(0.0926557 3.40853e-05 0)
(0.0925328 3.52669e-05 0)
(0.0924083 3.66712e-05 0)
(0.0922814 3.83344e-05 0)
(0.0921513 4.02999e-05 0)
(0.0920169 4.26199e-05 0)
(0.0918772 4.53582e-05 0)
(0.0917309 4.8592e-05 0)
(0.0915765 5.24168e-05 0)
(0.0914123 5.69509e-05 0)
(0.0912362 6.23424e-05 0)
(0.0910458 6.87761e-05 0)
(0.0908382 7.64865e-05 0)
(0.0906098 8.57723e-05 0)
(0.0903564 9.70181e-05 0)
(0.0900727 0.000110724 0)
(0.0897521 0.000127549 0)
(0.0893864 0.000148372 0)
(0.0889651 0.000174384 0)
(0.0884749 0.000207221 0)
(0.0878983 0.000249181 0)
(0.0872119 0.00030354 0)
(0.0863846 0.000375073 0)
(0.0853732 0.000470882 0)
(0.0841175 0.000601761 0)
(0.0825315 0.000784486 0)
(0.0804902 0.0010457 0)
(0.0778082 0.00142864 0)
(0.0741921 0.00200713 0)
(0.0691856 0.00292934 0)
(0.0622509 0.00460802 0)
(0.054433 0.0088982 0)
(0.0999944 1.19312e-05 0)
(0.0999254 3.41061e-05 0)
(0.0997693 5.62585e-05 0)
(0.0995552 6.81447e-05 0)
(0.0993279 6.83558e-05 0)
(0.0991195 6.1965e-05 0)
(0.0989394 5.47693e-05 0)
(0.0987821 4.9997e-05 0)
(0.0986374 4.82227e-05 0)
(0.0984968 4.86601e-05 0)
(0.0983555 5.02853e-05 0)
(0.0982117 5.23521e-05 0)
(0.098065 5.44661e-05 0)
(0.0979157 5.64805e-05 0)
(0.0977644 5.83771e-05 0)
(0.0976114 6.01852e-05 0)
(0.097457 6.19419e-05 0)
(0.0973016 6.36758e-05 0)
(0.0971451 6.54049e-05 0)
(0.0969878 6.71373e-05 0)
(0.0968297 6.88737e-05 0)
(0.0966709 7.06089e-05 0)
(0.0965116 7.23326e-05 0)
(0.0963519 7.40311e-05 0)
(0.096192 7.56889e-05 0)
(0.0960321 7.72893e-05 0)
(0.0958723 7.88157e-05 0)
(0.0957131 8.02534e-05 0)
(0.0955545 8.15896e-05 0)
(0.095397 8.28146e-05 0)
(0.0952407 8.39228e-05 0)
(0.0950859 8.49127e-05 0)
(0.094933 8.57868e-05 0)
(0.094782 8.65525e-05 0)
(0.0946333 8.72222e-05 0)
(0.0944869 8.78119e-05 0)
(0.094343 8.83413e-05 0)
(0.0942016 8.88347e-05 0)
(0.0940629 8.93192e-05 0)
(0.0939267 8.98253e-05 0)
(0.093793 9.0386e-05 0)
(0.0936617 9.10366e-05 0)
(0.0935326 9.18163e-05 0)
(0.0934054 9.27666e-05 0)
(0.09328 9.39316e-05 0)
(0.093156 9.53591e-05 0)
(0.093033 9.71012e-05 0)
(0.0929106 9.92144e-05 0)
(0.0927883 0.000101762 0)
(0.0926656 0.000104815 0)
(0.092542 0.000108456 0)
(0.0924166 0.000112777 0)
(0.0922888 0.000117892 0)
(0.0921578 0.000123931 0)
(0.0920226 0.000131053 0)
(0.0918821 0.000139453 0)
(0.091735 0.000149365 0)
(0.09158 0.000161078 0)
(0.0914152 0.000174953 0)
(0.0912388 0.000191436 0)
(0.0910484 0.000211086 0)
(0.0908412 0.00023461 0)
(0.0906138 0.000262907 0)
(0.0903621 0.000297129 0)
(0.0900812 0.000338773 0)
(0.0897649 0.000389799 0)
(0.0894056 0.000452815 0)
(0.0889938 0.000531326 0)
(0.0885173 0.000630129 0)
(0.0879606 0.000755885 0)
(0.0873037 0.000918006 0)
(0.0865201 0.00113002 0)
(0.0855748 0.00141172 0)
(0.0844211 0.0017925 0)
(0.0829963 0.00231669 0)
(0.0812171 0.00305162 0)
(0.0789746 0.00409925 0)
(0.0761258 0.00561159 0)
(0.0725122 0.00781035 0)
(0.0681868 0.0109498 0)
(0.0644271 0.0148842 0)
(0.0999954 2.00027e-05 0)
(0.0999299 5.79306e-05 0)
(0.0997795 9.59385e-05 0)
(0.099571 0.000116572 0)
(0.0993474 0.000117272 0)
(0.0991403 0.000106592 0)
(0.0989599 9.4407e-05 0)
(0.0988016 8.62631e-05 0)
(0.0986557 8.31897e-05 0)
(0.0985143 8.38797e-05 0)
(0.0983726 8.66058e-05 0)
(0.0982287 9.01009e-05 0)
(0.0980823 9.36906e-05 0)
(0.0979334 9.71213e-05 0)
(0.0977827 0.000100359 0)
(0.0976304 0.000103451 0)
(0.0974768 0.000106459 0)
(0.0973221 0.00010943 0)
(0.0971665 0.000112395 0)
(0.09701 0.000115366 0)
(0.0968528 0.000118346 0)
(0.096695 0.000121324 0)
(0.0965366 0.000124284 0)
(0.0963779 0.000127202 0)
(0.0962189 0.000130052 0)
(0.0960599 0.000132806 0)
(0.0959011 0.000135435 0)
(0.0957427 0.000137914 0)
(0.095585 0.000140223 0)
(0.0954283 0.000142343 0)
(0.0952728 0.000144267 0)
(0.0951187 0.000145991 0)
(0.0949664 0.00014752 0)
(0.094816 0.000148867 0)
(0.0946676 0.000150052 0)
(0.0945216 0.000151104 0)
(0.0943779 0.000152056 0)
(0.0942367 0.00015295 0)
(0.0940979 0.000153832 0)
(0.0939615 0.000154753 0)
(0.0938276 0.000155772 0)
(0.0936958 0.000156947 0)
(0.0935662 0.000158347 0)
(0.0934384 0.000160042 0)
(0.0933122 0.000162107 0)
(0.0931872 0.000164624 0)
(0.0930632 0.000167682 0)
(0.0929397 0.000171378 0)
(0.0928162 0.00017582 0)
(0.0926922 0.00018113 0)
(0.0925672 0.000187444 0)
(0.0924404 0.000194924 0)
(0.0923111 0.000203759 0)
(0.0921787 0.000214172 0)
(0.092042 0.000226432 0)
(0.0919001 0.000240864 0)
(0.0917518 0.000257867 0)
(0.0915956 0.000277925 0)
(0.0914301 0.000301641 0)
(0.0912532 0.000329759 0)
(0.0910629 0.000363211 0)
(0.0908565 0.000403167 0)
(0.090631 0.000451108 0)
(0.0903825 0.000508924 0)
(0.0901067 0.000579049 0)
(0.0897982 0.00066465 0)
(0.0894503 0.00076989 0)
(0.089055 0.000900313 0)
(0.0886024 0.00106339 0)
(0.0880801 0.00126931 0)
(0.087473 0.00153218 0)
(0.0867623 0.00187174 0)
(0.085925 0.00231587 0)
(0.0849335 0.00290423 0)
(0.0837564 0.00369315 0)
(0.0823613 0.00476151 0)
(0.0807237 0.00621532 0)
(0.0788427 0.00818465 0)
(0.076784 0.0107982 0)
(0.0748083 0.0140622 0)
(0.0736069 0.0173798 0)
(0.0999963 2.78936e-05 0)
(0.0999361 8.208e-05 0)
(0.0997948 0.000136707 0)
(0.0995953 0.000166961 0)
(0.0993779 0.00016881 0)
(0.0991733 0.000154168 0)
(0.0989925 0.000137047 0)
(0.0988325 0.000125439 0)
(0.0986848 0.000120938 0)
(0.0985421 0.000121779 0)
(0.0983998 0.000125548 0)
(0.0982559 0.000130454 0)
(0.0981098 0.000135534 0)
(0.0979618 0.000140415 0)
(0.097812 0.000145041 0)
(0.0976608 0.000149472 0)
(0.0975084 0.00015379 0)
(0.097355 0.000158061 0)
(0.0972007 0.000162326 0)
(0.0970457 0.000166604 0)
(0.0968899 0.000170896 0)
(0.0967336 0.000175188 0)
(0.0965767 0.000179456 0)
(0.0964195 0.000183667 0)
(0.0962621 0.000187783 0)
(0.0961046 0.000191765 0)
(0.0959474 0.000195573 0)
(0.0957905 0.000199171 0)
(0.0956343 0.000202529 0)
(0.095479 0.000205624 0)
(0.0953248 0.000208443 0)
(0.095172 0.000210981 0)
(0.0950208 0.000213248 0)
(0.0948714 0.00021526 0)
(0.0947239 0.000217046 0)
(0.0945786 0.000218648 0)
(0.0944354 0.000220115 0)
(0.0942946 0.000221504 0)
(0.094156 0.000222884 0)
(0.0940197 0.000224326 0)
(0.0938855 0.000225914 0)
(0.0937535 0.000227735 0)
(0.0936233 0.000229883 0)
(0.0934948 0.00023246 0)
(0.0933678 0.000235574 0)
(0.0932418 0.000239343 0)
(0.0931166 0.000243894 0)
(0.0929918 0.000249364 0)
(0.0928669 0.000255908 0)
(0.0927414 0.000263698 0)
(0.0926148 0.000272932 0)
(0.0924864 0.000283837 0)
(0.0923555 0.00029668 0)
(0.0922214 0.000311777 0)
(0.0920832 0.000329508 0)
(0.0919399 0.000350328 0)
(0.0917904 0.000374794 0)
(0.0916334 0.000403585 0)
(0.0914675 0.000437536 0)
(0.0912909 0.000477677 0)
(0.0911017 0.000525288 0)
(0.0908975 0.000581968 0)
(0.0906758 0.000649725 0)
(0.0904332 0.000731101 0)
(0.0901661 0.000829335 0)
(0.0898702 0.000948592 0)
(0.0895401 0.00109427 0)
(0.0891699 0.00127344 0)
(0.0887525 0.00149542 0)
(0.0882797 0.00177263 0)
(0.0877423 0.00212174 0)
(0.0871303 0.00256521 0)
(0.0864338 0.00313333 0)
(0.0856445 0.00386667 0)
(0.0847595 0.0048185 0)
(0.083787 0.00605568 0)
(0.0827579 0.00765429 0)
(0.081742 0.00968158 0)
(0.0808713 0.012149 0)
(0.0803658 0.014899 0)
(0.0804957 0.0173577 0)
(0.0999972 3.53683e-05 0)
(0.0999439 0.00010586 0)
(0.0998148 0.000177654 0)
(0.0996279 0.000218558 0)
(0.0994193 0.000222615 0)
(0.0992183 0.00020474 0)
(0.0990373 0.000182993 0)
(0.0988751 0.000167919 0)
(0.0987251 0.000161839 0)
(0.0985807 0.000162655 0)
(0.0984376 0.000167328 0)
(0.0982937 0.000173562 0)
(0.0981482 0.000180095 0)
(0.0980012 0.000186426 0)
(0.0978528 0.000192463 0)
(0.0977031 0.000198269 0)
(0.0975524 0.000203945 0)
(0.0974009 0.000209568 0)
(0.0972485 0.00021519 0)
(0.0970954 0.000220833 0)
(0.0969417 0.000226498 0)
(0.0967875 0.000232167 0)
(0.0966328 0.000237808 0)
(0.0964777 0.00024338 0)
(0.0963225 0.000248833 0)
(0.0961673 0.000254115 0)
(0.0960123 0.000259177 0)
(0.0958576 0.000263972 0)
(0.0957035 0.000268462 0)
(0.0955503 0.000272618 0)
(0.0953981 0.000276421 0)
(0.0952471 0.000279869 0)
(0.0950976 0.000282972 0)
(0.0949498 0.000285752 0)
(0.0948037 0.00028825 0)
(0.0946595 0.000290516 0)
(0.0945174 0.000292617 0)
(0.0943773 0.000294628 0)
(0.0942393 0.000296637 0)
(0.0941033 0.000298741 0)
(0.0939693 0.000301046 0)
(0.0938371 0.000303667 0)
(0.0937066 0.000306728 0)
(0.0935776 0.000310361 0)
(0.0934499 0.00031471 0)
(0.093323 0.000319926 0)
(0.0931968 0.000326175 0)
(0.0930707 0.000333639 0)
(0.0929445 0.000342516 0)
(0.0928176 0.000353032 0)
(0.0926895 0.000365442 0)
(0.0925596 0.00038004 0)
(0.0924273 0.000397171 0)
(0.0922919 0.00041724 0)
(0.0921525 0.000440733 0)
(0.0920083 0.000468231 0)
(0.0918583 0.00050044 0)
(0.0917013 0.000538216 0)
(0.0915361 0.000582606 0)
(0.0913611 0.000634896 0)
(0.0911747 0.000696668 0)
(0.090975 0.000769882 0)
(0.0907599 0.000856976 0)
(0.0905268 0.000960998 0)
(0.090273 0.00108578 0)
(0.0899953 0.00123618 0)
(0.0896903 0.00141835 0)
(0.0893541 0.00164019 0)
(0.088983 0.00191183 0)
(0.088573 0.00224635 0)
(0.0881211 0.00266061 0)
(0.0876255 0.00317631 0)
(0.0870878 0.00382104 0)
(0.0865146 0.00462913 0)
(0.0859222 0.00564147 0)
(0.0853416 0.00690261 0)
(0.0848262 0.0084519 0)
(0.0844589 0.010303 0)
(0.0843557 0.0124041 0)
(0.0846492 0.0145711 0)
(0.0854161 0.016405 0)
(0.0999981 4.21597e-05 0)
(0.0999529 0.000128518 0)
(0.0998385 0.000217776 0)
(0.0996672 0.000270488 0)
(0.0994697 0.000278217 0)
(0.0992737 0.000258272 0)
(0.0990929 0.000232504 0)
(0.0989286 0.000214081 0)
(0.098776 0.000206264 0)
(0.0986297 0.000206807 0)
(0.0984857 0.000212163 0)
(0.0983419 0.000219565 0)
(0.0981973 0.000227459 0)
(0.0980517 0.0002352 0)
(0.097905 0.000242641 0)
(0.0977574 0.00024984 0)
(0.0976089 0.000256902 0)
(0.0974597 0.000263917 0)
(0.0973098 0.000270939 0)
(0.0971593 0.000277996 0)
(0.0970082 0.000285084 0)
(0.0968567 0.000292184 0)
(0.0967048 0.000299255 0)
(0.0965526 0.000306247 0)
(0.0964003 0.0003131 0)
(0.096248 0.000319751 0)
(0.0960958 0.00032614 0)
(0.095944 0.000332212 0)
(0.0957927 0.000337919 0)
(0.0956422 0.000343228 0)
(0.0954926 0.000348116 0)
(0.0953442 0.000352581 0)
(0.095197 0.000356635 0)
(0.0950513 0.000360308 0)
(0.0949071 0.000363648 0)
(0.0947647 0.00036672 0)
(0.0946241 0.000369604 0)
(0.0944852 0.000372393 0)
(0.0943482 0.000375197 0)
(0.094213 0.000378134 0)
(0.0940794 0.000381337 0)
(0.0939475 0.000384947 0)
(0.093817 0.000389117 0)
(0.0936878 0.000394012 0)
(0.0935596 0.000399806 0)
(0.0934321 0.000406689 0)
(0.0933051 0.000414864 0)
(0.0931781 0.000424554 0)
(0.0930509 0.000436003 0)
(0.092923 0.000449488 0)
(0.0927938 0.000465319 0)
(0.0926629 0.000483854 0)
(0.0925297 0.000505509 0)
(0.0923936 0.000530775 0)
(0.0922538 0.000560232 0)
(0.0921096 0.000594576 0)
(0.0919602 0.00063464 0)
(0.0918045 0.000681435 0)
(0.0916416 0.000736183 0)
(0.0914702 0.000800372 0)
(0.091289 0.000875818 0)
(0.0910967 0.00096474 0)
(0.0908916 0.00106987 0)
(0.0906722 0.00119456 0)
(0.0904366 0.00134296 0)
(0.0901832 0.00152022 0)
(0.0899101 0.00173271 0)
(0.089616 0.00198836 0)
(0.0893002 0.00229704 0)
(0.0889627 0.00267097 0)
(0.0886057 0.00312516 0)
(0.0882338 0.00367787 0)
(0.0878564 0.00435071 0)
(0.0874893 0.00516821 0)
(0.0871575 0.00615605 0)
(0.0868991 0.00733677 0)
(0.0867674 0.00872104 0)
(0.0868319 0.0102921 0)
(0.0871712 0.011982 0)
(0.087851 0.0136419 0)
(0.0888742 0.0150259 0)
(0.099999 4.80176e-05 0)
(0.0999624 0.000149344 0)
(0.0998644 0.000256081 0)
(0.0997107 0.000321831 0)
(0.0995265 0.000335048 0)
(0.099337 0.000314613 0)
(0.0991573 0.000285735 0)
(0.0989911 0.000264227 0)
(0.098836 0.000254533 0)
(0.0986879 0.000254507 0)
(0.0985432 0.000260248 0)
(0.0983997 0.000268592 0)
(0.0982563 0.000277697 0)
(0.0981124 0.000286762 0)
(0.0979679 0.00029557 0)
(0.0978227 0.000304154 0)
(0.0976769 0.000312615 0)
(0.0975305 0.000321044 0)
(0.0973836 0.000329497 0)
(0.0972362 0.000338002 0)
(0.0970884 0.000346554 0)
(0.0969402 0.000355127 0)
(0.0967916 0.000363674 0)
(0.0966429 0.000372137 0)
(0.0964941 0.000380445 0)
(0.0963453 0.000388528 0)
(0.0961967 0.000396314 0)
(0.0960483 0.00040374 0)
(0.0959005 0.000410753 0)
(0.0957534 0.000417312 0)
(0.095607 0.000423394 0)
(0.0954616 0.000428996 0)
(0.0953174 0.000434133 0)
(0.0951744 0.000438842 0)
(0.0950327 0.000443179 0)
(0.0948926 0.000447221 0)
(0.0947539 0.000451063 0)
(0.0946168 0.000454817 0)
(0.0944812 0.000458609 0)
(0.0943472 0.000462584 0)
(0.0942145 0.000466894 0)
(0.0940833 0.00047171 0)
(0.0939532 0.000477213 0)
(0.0938241 0.000483596 0)
(0.0936959 0.000491067 0)
(0.0935682 0.00049985 0)
(0.0934409 0.000510185 0)
(0.0933135 0.000522332 0)
(0.0931857 0.000536581 0)
(0.0930573 0.000553253 0)
(0.0929277 0.00057271 0)
(0.0927965 0.000595367 0)
(0.0926632 0.000621704 0)
(0.0925273 0.000652284 0)
(0.0923882 0.000687768 0)
(0.0922453 0.000728941 0)
(0.0920979 0.000776742 0)
(0.0919453 0.000832293 0)
(0.0917867 0.000896941 0)
(0.0916212 0.000972307 0)
(0.091448 0.00106034 0)
(0.0912662 0.00116341 0)
(0.091075 0.00128434 0)
(0.0908734 0.00142658 0)
(0.0906609 0.00159428 0)
(0.0904371 0.00179245 0)
(0.0902018 0.00202714 0)
(0.089956 0.00230559 0)
(0.0897013 0.00263647 0)
(0.089441 0.00302997 0)
(0.0891808 0.00349794 0)
(0.0889295 0.00405376 0)
(0.0887003 0.00471188 0)
(0.0885122 0.00548671 0)
(0.0883914 0.00639043 0)
(0.0883728 0.00742907 0)
(0.0884995 0.00859616 0)
(0.0888199 0.00986343 0)
(0.08938 0.0111695 0)
(0.0902065 0.0124106 0)
(0.0912804 0.013443 0)
(0.0999998 5.27637e-05 0)
(0.0999718 0.000167772 0)
(0.0998904 0.000291718 0)
(0.0997555 0.000371715 0)
(0.099586 0.000392479 0)
(0.0994046 0.000373472 0)
(0.0992271 0.000342684 0)
(0.09906 0.000318525 0)
(0.0989031 0.000306868 0)
(0.0987535 0.00030596 0)
(0.0986084 0.000311741 0)
(0.0984655 0.000320742 0)
(0.0983235 0.00033086 0)
(0.0981817 0.000341125 0)
(0.0980397 0.000351231 0)
(0.0978974 0.000361168 0)
(0.0977547 0.000371018 0)
(0.0976117 0.000380866 0)
(0.0974682 0.000390767 0)
(0.0973244 0.000400741 0)
(0.0971803 0.000410783 0)
(0.0970359 0.00042086 0)
(0.0968913 0.00043092 0)
(0.0967465 0.000440894 0)
(0.0966017 0.000450707 0)
(0.096457 0.000460277 0)
(0.0963124 0.000469526 0)
(0.0961681 0.000478384 0)
(0.0960243 0.000486791 0)
(0.095881 0.000494703 0)
(0.0957384 0.000502096 0)
(0.0955967 0.000508966 0)
(0.0954558 0.000515333 0)
(0.0953161 0.000521237 0)
(0.0951774 0.000526746 0)
(0.09504 0.000531946 0)
(0.0949038 0.000536946 0)
(0.0947689 0.000541874 0)
(0.0946352 0.000546876 0)
(0.0945028 0.000552114 0)
(0.0943715 0.000557767 0)
(0.0942413 0.000564028 0)
(0.0941121 0.000571103 0)
(0.0939837 0.000579216 0)
(0.0938559 0.000588604 0)
(0.0937286 0.00059952 0)
(0.0936014 0.000612238 0)
(0.0934742 0.000627055 0)
(0.0933466 0.000644297 0)
(0.0932184 0.000664325 0)
(0.0930891 0.000687546 0)
(0.0929585 0.000714421 0)
(0.0928262 0.00074548 0)
(0.0926917 0.00078134 0)
(0.0925546 0.000822722 0)
(0.0924145 0.000870474 0)
(0.0922709 0.000925597 0)
(0.0921232 0.000989277 0)
(0.0919711 0.00106292 0)
(0.0918141 0.0011482 0)
(0.0916517 0.00124709 0)
(0.0914837 0.00136194 0)
(0.0913098 0.00149552 0)
(0.09113 0.0016511 0)
(0.0909447 0.00183254 0)
(0.0907546 0.00204435 0)
(0.0905612 0.00229176 0)
(0.0903669 0.00258079 0)
(0.0901753 0.00291826 0)
(0.0899916 0.00331175 0)
(0.0898235 0.0037694 0)
(0.0896812 0.00429951 0)
(0.0895787 0.00490986 0)
(0.0895342 0.00560648 0)
(0.0895703 0.00639178 0)
(0.0897143 0.00726181 0)
(0.0899964 0.00820242 0)
(0.0904466 0.00918489 0)
(0.0910883 0.0101617 0)
(0.0919289 0.0110652 0)
(0.0929474 0.0118139 0)
(0.1 5.63293e-05 0)
(0.0999802 0.000183467 0)
(0.0999147 0.000324091 0)
(0.0997984 0.000419422 0)
(0.0996443 0.000449869 0)
(0.0994724 0.000434422 0)
(0.0992988 0.000403155 0)
(0.0991321 0.000376953 0)
(0.0989743 0.000363345 0)
(0.0988241 0.000361271 0)
(0.0986791 0.000366735 0)
(0.0985372 0.000376077 0)
(0.098397 0.000386975 0)
(0.0982576 0.000398284 0)
(0.0981185 0.000409591 0)
(0.0979794 0.000420825 0)
(0.0978402 0.000432037 0)
(0.0977009 0.000443295 0)
(0.0975613 0.000454642 0)
(0.0974215 0.000466096 0)
(0.0972815 0.000477643 0)
(0.0971413 0.000489245 0)
(0.097001 0.000500843 0)
(0.0968606 0.000512362 0)
(0.0967203 0.00052372 0)
(0.09658 0.000534829 0)
(0.0964399 0.000545604 0)
(0.0963001 0.000555969 0)
(0.0961606 0.000565861 0)
(0.0960216 0.000575233 0)
(0.0958832 0.00058406 0)
(0.0957454 0.000592339 0)
(0.0956085 0.000600093 0)
(0.0954723 0.000607369 0)
(0.095337 0.00061424 0)
(0.0952028 0.000620804 0)
(0.0950694 0.000627181 0)
(0.0949371 0.000633513 0)
(0.0948058 0.000639963 0)
(0.0946754 0.000646711 0)
(0.094546 0.000653956 0)
(0.0944174 0.000661911 0)
(0.0942895 0.000670807 0)
(0.0941622 0.000680892 0)
(0.0940355 0.000692427 0)
(0.093909 0.000705693 0)
(0.0937827 0.000720993 0)
(0.0936563 0.000738651 0)
(0.0935297 0.000759024 0)
(0.0934025 0.000782504 0)
(0.0932746 0.000809529 0)
(0.0931456 0.000840593 0)
(0.0930154 0.000876259 0)
(0.0928836 0.000917176 0)
(0.0927499 0.000964095 0)
(0.0926142 0.00101789 0)
(0.0924762 0.00107958 0)
(0.0923356 0.00115035 0)
(0.0921922 0.00123161 0)
(0.0920461 0.00132496 0)
(0.0918973 0.00143231 0)
(0.0917458 0.00155584 0)
(0.0915923 0.00169807 0)
(0.0914373 0.0018619 0)
(0.0912821 0.00205064 0)
(0.0911283 0.00226798 0)
(0.0909785 0.00251805 0)
(0.0908361 0.00280533 0)
(0.0907056 0.00313456 0)
(0.0905932 0.00351057 0)
(0.0905069 0.00393798 0)
(0.0904567 0.00442071 0)
(0.0904553 0.00496128 0)
(0.0905175 0.0055599 0)
(0.0906608 0.00621313 0)
(0.090904 0.00691231 0)
(0.0912661 0.00764173 0)
(0.0917636 0.00837698 0)
(0.0924065 0.00908412 0)
(0.0931937 0.00972084 0)
(0.0941077 0.0102411 0)
(0.100001 5.87653e-05 0)
(0.0999873 0.000196367 0)
(0.0999358 0.00035293 0)
(0.099837 0.000464463 0)
(0.0996984 0.000506629 0)
(0.0995369 0.000496923 0)
(0.0993689 0.000466756 0)
(0.0992043 0.000439285 0)
(0.099047 0.000423869 0)
(0.0988971 0.000420421 0)
(0.0987529 0.000425243 0)
(0.0986125 0.000434616 0)
(0.0984745 0.000446044 0)
(0.0983379 0.000458221 0)
(0.098202 0.000470611 0)
(0.0980664 0.000483067 0)
(0.097931 0.000495596 0)
(0.0977957 0.000508238 0)
(0.0976602 0.000521022 0)
(0.0975247 0.000533953 0)
(0.0973891 0.000547011 0)
(0.0972535 0.000560149 0)
(0.0971178 0.000573305 0)
(0.0969821 0.000586397 0)
(0.0968464 0.000599337 0)
(0.0967109 0.000612032 0)
(0.0965755 0.000624394 0)
(0.0964404 0.000636342 0)
(0.0963056 0.000647811 0)
(0.0961712 0.000658754 0)
(0.0960372 0.000669144 0)
(0.0959038 0.000678981 0)
(0.0957709 0.000688289 0)
(0.0956387 0.000697123 0)
(0.0955071 0.000705559 0)
(0.0953763 0.000713705 0)
(0.0952462 0.000721689 0)
(0.0951168 0.000729667 0)
(0.0949882 0.000737813 0)
(0.0948603 0.000746323 0)
(0.0947331 0.000755411 0)
(0.0946065 0.00076531 0)
(0.0944805 0.000776267 0)
(0.0943549 0.00078855 0)
(0.0942298 0.000802442 0)
(0.0941049 0.000818242 0)
(0.0939801 0.000836274 0)
(0.0938553 0.000856883 0)
(0.0937305 0.000880445 0)
(0.0936053 0.000907371 0)
(0.0934797 0.000938115 0)
(0.0933535 0.000973187 0)
(0.0932266 0.00101316 0)
(0.0930989 0.00105869 0)
(0.0929703 0.00111052 0)
(0.0928406 0.00116951 0)
(0.09271 0.00123664 0)
(0.0925784 0.00131305 0)
(0.0924459 0.00140005 0)
(0.092313 0.00149911 0)
(0.0921799 0.00161192 0)
(0.0920474 0.0017404 0)
(0.0919163 0.00188666 0)
(0.0917881 0.00205307 0)
(0.0916644 0.0022422 0)
(0.0915475 0.0024568 0)
(0.0914405 0.00269973 0)
(0.0913473 0.00297389 0)
(0.0912727 0.00328201 0)
(0.0912228 0.00362648 0)
(0.091205 0.00400902 0)
(0.0912278 0.00443027 0)
(0.0913014 0.00488926 0)
(0.0914369 0.00538278 0)
(0.0916462 0.00590468 0)
(0.0919413 0.00644509 0)
(0.0923327 0.00698981 0)
(0.0928282 0.00752 0)
(0.0934305 0.00801252 0)
(0.0941354 0.00844134 0)
(0.0949294 0.00878039 0)
(0.100001 6.02236e-05 0)
(0.0999926 0.000206664 0)
(0.0999529 0.000378286 0)
(0.0998695 0.000506609 0)
(0.0997458 0.000562271 0)
(0.0995956 0.000560381 0)
(0.0994346 0.000532941 0)
(0.0992739 0.00050511 0)
(0.0991187 0.000488178 0)
(0.0989702 0.000483267 0)
(0.0988276 0.000487193 0)
(0.0986894 0.000496318 0)
(0.098554 0.000508038 0)
(0.0984204 0.0005209 0)
(0.098288 0.000534244 0)
(0.0981562 0.000547836 0)
(0.0980249 0.000561624 0)
(0.0978937 0.000575615 0)
(0.0977626 0.000589814 0)
(0.0976316 0.000604213 0)
(0.0975006 0.00061878 0)
(0.0973697 0.000633464 0)
(0.0972388 0.000648193 0)
(0.0971079 0.000662882 0)
(0.0969772 0.000677439 0)
(0.0968465 0.000691768 0)
(0.096716 0.000705778 0)
(0.0965858 0.000719387 0)
(0.0964558 0.000732528 0)
(0.0963261 0.000745155 0)
(0.0961967 0.000757242 0)
(0.0960677 0.000768789 0)
(0.0959391 0.000779826 0)
(0.095811 0.000790406 0)
(0.0956834 0.000800615 0)
(0.0955562 0.000810564 0)
(0.0954296 0.00082039 0)
(0.0953035 0.000830254 0)
(0.0951779 0.000840342 0)
(0.0950529 0.00085086 0)
(0.0949283 0.000862033 0)
(0.0948042 0.000874107 0)
(0.0946806 0.000887342 0)
(0.0945573 0.000902019 0)
(0.0944344 0.000918432 0)
(0.0943117 0.000936895 0)
(0.0941893 0.000957741 0)
(0.094067 0.000981326 0)
(0.0939448 0.00100803 0)
(0.0938226 0.00103827 0)
(0.0937005 0.0010725 0)
(0.0935783 0.00111122 0)
(0.093456 0.00115499 0)
(0.0933338 0.00120444 0)
(0.0932116 0.00126027 0)
(0.0930897 0.00132328 0)
(0.0929681 0.00139438 0)
(0.0928473 0.00147458 0)
(0.0927275 0.00156502 0)
(0.0926095 0.00166696 0)
(0.0924939 0.00178181 0)
(0.0923818 0.00191108 0)
(0.0922744 0.00205642 0)
(0.0921735 0.00221956 0)
(0.0920811 0.00240225 0)
(0.0919998 0.00260627 0)
(0.0919328 0.00283328 0)
(0.0918839 0.0030847 0)
(0.0918577 0.00336159 0)
(0.0918595 0.00366443 0)
(0.0918954 0.00399287 0)
(0.0919723 0.00434542 0)
(0.0920973 0.00471916 0)
(0.0922782 0.00510939 0)
(0.0925224 0.00550929 0)
(0.0928365 0.00590973 0)
(0.0932257 0.00629915 0)
(0.0936925 0.00666384 0)
(0.0942364 0.00698844 0)
(0.094852 0.00725708 0)
(0.0955294 0.00745492 0)
(0.100001 6.09172e-05 0)
(0.0999963 0.000214731 0)
(0.0999659 0.000400469 0)
(0.0998957 0.000545873 0)
(0.0997856 0.000616451 0)
(0.0996469 0.000624215 0)
(0.0994942 0.000601078 0)
(0.0993389 0.000573887 0)
(0.0991873 0.000555874 0)
(0.0990416 0.000549549 0)
(0.0989016 0.000552429 0)
(0.098766 0.00056109 0)
(0.0986337 0.000572893 0)
(0.0985035 0.000586269 0)
(0.0983748 0.000600437 0)
(0.098247 0.00061507 0)
(0.0981198 0.000630054 0)
(0.097993 0.00064535 0)
(0.0978665 0.000660938 0)
(0.0977401 0.000676791 0)
(0.0976139 0.000692866 0)
(0.0974877 0.0007091 0)
(0.0973617 0.000725418 0)
(0.0972357 0.00074173 0)
(0.0971099 0.000757941 0)
(0.0969842 0.000773953 0)
(0.0968587 0.000789675 0)
(0.0967333 0.000805025 0)
(0.0966081 0.000819938 0)
(0.0964832 0.000834365 0)
(0.0963584 0.000848285 0)
(0.096234 0.000861698 0)
(0.0961098 0.000874634 0)
(0.0959859 0.000887152 0)
(0.0958623 0.000899337 0)
(0.095739 0.000911304 0)
(0.0956161 0.000923195 0)
(0.0954935 0.000935174 0)
(0.0953713 0.000947433 0)
(0.0952494 0.000960182 0)
(0.095128 0.000973654 0)
(0.0950068 0.0009881 0)
(0.0948861 0.00100379 0)
(0.0947657 0.001021 0)
(0.0946457 0.00104004 0)
(0.094526 0.00106122 0)
(0.0944067 0.00108487 0)
(0.0942877 0.00111135 0)
(0.0941692 0.00114102 0)
(0.0940511 0.0011743 0)
(0.0939335 0.00121161 0)
(0.0938165 0.00125342 0)
(0.0937002 0.00130026 0)
(0.0935848 0.00135268 0)
(0.0934706 0.00141133 0)
(0.0933578 0.0014769 0)
(0.0932468 0.00155016 0)
(0.0931381 0.00163195 0)
(0.0930324 0.0017232 0)
(0.0929306 0.0018249 0)
(0.0928334 0.00193809 0)
(0.0927424 0.00206386 0)
(0.0926588 0.00220332 0)
(0.0925845 0.00235755 0)
(0.0925218 0.00252754 0)
(0.0924731 0.00271414 0)
(0.0924416 0.00291797 0)
(0.0924305 0.0031393 0)
(0.0924439 0.00337791 0)
(0.092486 0.00363296 0)
(0.0925614 0.00390284 0)
(0.0926751 0.00418494 0)
(0.092832 0.00447555 0)
(0.0930368 0.0047697 0)
(0.0932936 0.00506108 0)
(0.0936056 0.00534209 0)
(0.0939746 0.00560393 0)
(0.0944007 0.00583698 0)
(0.0948815 0.00603126 0)
(0.0954122 0.00617714 0)
(0.0959854 0.00626614 0)
(0.100001 6.10744e-05 0)
(0.0999986 0.000221037 0)
(0.0999751 0.000419954 0)
(0.0999156 0.00058246 0)
(0.0998178 0.000668974 0)
(0.0996906 0.000687917 0)
(0.099547 0.00067053 0)
(0.0993984 0.000645009 0)
(0.0992518 0.000626472 0)
(0.0991099 0.000618921 0)
(0.0989733 0.00062072 0)
(0.0988411 0.00062878 0)
(0.0987123 0.000640505 0)
(0.0985859 0.000654247 0)
(0.0984611 0.00066912 0)
(0.0983375 0.000684704 0)
(0.0982146 0.000700817 0)
(0.0980923 0.000717374 0)
(0.0979703 0.000734324 0)
(0.0978486 0.000751618 0)
(0.0977272 0.000769197 0)
(0.0976059 0.00078699 0)
(0.0974847 0.000804915 0)
(0.0973637 0.00082288 0)
(0.0972428 0.000840786 0)
(0.097122 0.000858536 0)
(0.0970013 0.000876039 0)
(0.0968808 0.000893216 0)
(0.0967605 0.00091 0)
(0.0966403 0.000926346 0)
(0.0965202 0.000942233 0)
(0.0964002 0.000957662 0)
(0.0962805 0.000972665 0)
(0.0961609 0.0009873 0)
(0.0960414 0.00100165 0)
(0.0959222 0.00101584 0)
(0.0958031 0.00102999 0)
(0.0956843 0.00104429 0)
(0.0955658 0.00105892 0)
(0.0954475 0.00107408 0)
(0.0953295 0.00109002 0)
(0.0952119 0.00110698 0)
(0.0950946 0.00112524 0)
(0.0949777 0.00114506 0)
(0.0948613 0.00116674 0)
(0.0947453 0.00119059 0)
(0.09463 0.00121693 0)
(0.0945153 0.00124609 0)
(0.0944014 0.00127842 0)
(0.0942884 0.0013143 0)
(0.0941765 0.0013541 0)
(0.0940659 0.00139825 0)
(0.0939567 0.00144719 0)
(0.0938494 0.00150142 0)
(0.0937443 0.00156145 0)
(0.0936419 0.00162785 0)
(0.0935426 0.00170122 0)
(0.0934472 0.00178219 0)
(0.0933565 0.00187142 0)
(0.0932714 0.00196961 0)
(0.0931929 0.00207743 0)
(0.0931226 0.00219552 0)
(0.0930618 0.00232447 0)
(0.0930125 0.00246476 0)
(0.0929766 0.00261671 0)
(0.0929565 0.00278042 0)
(0.0929548 0.00295569 0)
(0.0929744 0.00314195 0)
(0.0930183 0.00333817 0)
(0.0930897 0.00354273 0)
(0.093192 0.0037534 0)
(0.0933282 0.00396718 0)
(0.0935016 0.00418032 0)
(0.0937146 0.00438829 0)
(0.0939691 0.00458577 0)
(0.0942664 0.00476683 0)
(0.0946064 0.00492509 0)
(0.0949878 0.00505397 0)
(0.0954081 0.00514709 0)
(0.0958631 0.00519865 0)
(0.0963471 0.00520378 0)
(0.100001 6.09033e-05 0)
(0.0999999 0.000226061 0)
(0.0999812 0.000437287 0)
(0.0999303 0.000616696 0)
(0.0998433 0.000719784 0)
(0.0997269 0.000751086 0)
(0.0995929 0.00074071 0)
(0.099452 0.000717868 0)
(0.0993114 0.000699447 0)
(0.0991745 0.000690977 0)
(0.0990421 0.000691774 0)
(0.0989139 0.000699185 0)
(0.098789 0.000710731 0)
(0.0986666 0.000724727 0)
(0.098546 0.000740203 0)
(0.0984267 0.000756657 0)
(0.0983083 0.00077384 0)
(0.0981905 0.000791617 0)
(0.0980732 0.000809904 0)
(0.0979562 0.000828626 0)
(0.0978395 0.000847711 0)
(0.0977231 0.000867078 0)
(0.0976067 0.000886634 0)
(0.0974906 0.000906287 0)
(0.0973746 0.000925935 0)
(0.0972587 0.000945484 0)
(0.0971429 0.000964843 0)
(0.0970272 0.000983933 0)
(0.0969115 0.00100269 0)
(0.096796 0.00102107 0)
(0.0966805 0.00103906 0)
(0.0965651 0.00105665 0)
(0.0964498 0.00107387 0)
(0.0963345 0.00109078 0)
(0.0962193 0.00110747 0)
(0.0961043 0.00112404 0)
(0.0959893 0.00114063 0)
(0.0958745 0.0011574 0)
(0.09576 0.00117454 0)
(0.0956456 0.00119226 0)
(0.0955316 0.00121077 0)
(0.0954179 0.00123033 0)
(0.0953047 0.00125118 0)
(0.0951919 0.00127358 0)
(0.0950798 0.00129783 0)
(0.0949684 0.0013242 0)
(0.0948579 0.00135298 0)
(0.0947484 0.00138447 0)
(0.0946401 0.00141899 0)
(0.0945333 0.00145684 0)
(0.0944281 0.00149837 0)
(0.0943249 0.0015439 0)
(0.094224 0.00159381 0)
(0.0941258 0.00164846 0)
(0.0940309 0.00170825 0)
(0.0939397 0.00177357 0)
(0.093853 0.00184483 0)
(0.0937714 0.00192245 0)
(0.0936959 0.00200683 0)
(0.0936275 0.00209832 0)
(0.0935672 0.00219725 0)
(0.0935165 0.00230386 0)
(0.0934768 0.00241827 0)
(0.0934497 0.00254046 0)
(0.093437 0.00267021 0)
(0.0934408 0.00280708 0)
(0.093463 0.00295031 0)
(0.093506 0.0030988 0)
(0.0935719 0.00325106 0)
(0.093663 0.00340515 0)
(0.0937814 0.00355867 0)
(0.093929 0.0037087 0)
(0.0941074 0.00385187 0)
(0.0943179 0.00398434 0)
(0.0945611 0.00410192 0)
(0.0948368 0.00420019 0)
(0.0951443 0.00427464 0)
(0.0954819 0.00432089 0)
(0.0958472 0.00433491 0)
(0.0962367 0.00431326 0)
(0.0966463 0.00425317 0)
(0.100001 6.05728e-05 0)
(0.1 0.000230242 0)
(0.099985 0.000453006 0)
(0.0999408 0.000648967 0)
(0.099863 0.000768937 0)
(0.0997568 0.00081344 0)
(0.0996324 0.000811117 0)
(0.0994998 0.000791893 0)
(0.0993661 0.000774268 0)
(0.0992348 0.00076528 0)
(0.0991074 0.000765254 0)
(0.0989838 0.000772053 0)