/*--------------------------------*- C++ -*----------------------------------*\
| =========                 |                                                 |
| \\      /  F ield         | OpenFOAM: The Open Source CFD Toolbox           |
|  \\    /   O peration     | Version:  4.1                                   |
|   \\  /    A nd           | Web:      www.OpenFOAM.org                      |
|    \\/     M anipulation  |                                                 |
\*---------------------------------------------------------------------------*/
FoamFile
{
    version     2.0;
    format      ascii;
    class       volScalarField;
    location    "0.6";
    object      gradTx;
}
// * * * * * * * * * * * * * * * * * * * * * * * * * * * * * * * * * * * * * //

dimensions      [0 -1 0 1 0 0 0];

internalField   nonuniform List<scalar> 
512
(
0.0108217
0.0305767
0.0454706
0.0542252
0.0572019
0.055681
0.0511864
0.0451002
0.0384284
0.0318537
0.0257665
0.0203421
0.0156144
0.01153
0.00798462
0.00484611
0.00196874
-0.00079841
-0.00360612
-0.00659978
-0.00991126
-0.0136442
-0.0178485
-0.0224805
-0.0273453
-0.0320265
-0.0358203
-0.0377191
-0.0365201
-0.0311466
-0.0212022
-0.0075504
0.0329385
0.0929522
0.137953
0.164133
0.172741
0.167798
0.153973
0.135456
0.115273
0.0954514
0.077144
0.0608602
0.0466887
0.0344604
0.0238562
0.014476
0.00588051
-0.00238429
-0.0107721
-0.0197211
-0.0296307
-0.0408179
-0.0534429
-0.0673886
-0.0820883
-0.0963087
-0.107943
-0.11394
-0.110612
-0.0945889
-0.064537
-0.0230144
0.0565236
0.159103
0.235162
0.27847
0.291705
0.282169
0.25798
0.22626
0.192062
0.158706
0.128046
0.100874
0.0772966
0.0570003
0.0394338
0.0239184
0.00971513
-0.00393706
-0.0177984
-0.0326061
-0.0490374
-0.0676421
-0.0887202
-0.112125
-0.136971
-0.16126
-0.181499
-0.192517
-0.1879
-0.161556
-0.110748
-0.0396055
0.0827247
0.231925
0.340593
0.400385
0.41643
0.400256
0.363949
0.317739
0.2687
0.221345
0.178125
0.14003
0.107117
0.0788841
0.054519
0.0330474
0.0134212
-0.00543354
-0.0245893
-0.0450913
-0.0679123
-0.0938648
-0.123439
-0.156529
-0.192027
-0.227264
-0.257402
-0.275046
-0.270657
-0.234669
-0.162049
-0.058209
0.112979
0.314944
0.458299
0.533316
0.549314
0.523452
0.472507
0.410009
0.344999
0.28303
0.226993
0.177948
0.135813
0.0998379
0.0689093
0.0417356
0.0169473
-0.00684923
-0.0310454
-0.0570056
-0.0860204
-0.119206
-0.15731
-0.200372
-0.247197
-0.294597
-0.336489
-0.363144
-0.361365
-0.316977
-0.221162
-0.0799495
0.149211
0.412699
0.59317
0.681103
0.692802
0.653022
0.584099
0.503019
0.420645
0.343334
0.274201
0.214213
0.16303
0.119578
0.0823977
0.0498537
0.0202419
-0.00815799
-0.0370625
-0.0681675
-0.103107
-0.143349
-0.189983
-0.243328
-0.302287
-0.363381
-0.419464
-0.458427
-0.462793
-0.41219
-0.291636
-0.106356
0.194143
0.531314
0.751289
0.848073
0.849339
0.790011
0.698912
0.596495
0.495159
0.401719
0.319233
0.248367
0.188388
0.137808
0.0947719
0.0572708
0.0232536
-0.00933216
-0.0425323
-0.0783848
-0.118893
-0.165931
-0.221029
-0.284945
-0.356923
-0.433507
-0.506815
-0.562455
-0.578046
-0.524949
-0.378316
-0.139621
0.251812
0.679354
0.940354
1.03908
1.02124
0.935109
0.816772
0.689879
0.567856
0.457514
0.361489
0.279906
0.211483
0.154222
0.105815
0.0638545
0.0259306
-0.010343
-0.0473424
-0.0874548
-0.133077
-0.186544
-0.249932
-0.324623
-0.410499
-0.504557
-0.598695
-0.676608
-0.71057
-0.661165
-0.488054
-0.183035
0.328451
0.869169
1.17018
1.2594
1.21047
1.08846
0.937023
0.782256
0.637821
0.509899
0.400283
0.30828
0.231888
0.168502
0.115307
0.0694714
0.0282212
-0.0111616
-0.0513785
-0.0951667
-0.145334
-0.204728
-0.27608
-0.361594
-0.462138
-0.575711
-0.694761
-0.801881
-0.864054
-0.828399
-0.630833
-0.241737
0.43409
1.11906
1.45317
1.5145
1.41826
1.24941
1.05839
0.872297
0.703872
0.557899
0.434841
0.332889
0.249153
0.180322
0.123025
0.0739889
0.0300734
-0.0117603
-0.0545269
-0.101306
-0.155323
-0.219982
-0.298765
-0.394909
-0.510641
-0.645633
-0.793958
-0.938542
-1.04214
-1.03623
-0.821579
-0.324067
0.58551
1.45683
1.80462
1.80926
1.6445
1.41618
1.17884
0.958201
0.764554
0.600386
0.464305
0.353097
0.262816
0.189354
0.12875
0.0772765
0.0314356
-0.012114
-0.0566784
-0.105659
-0.162697
-0.231769
-0.317198
-0.423438
-0.554464
-0.712377
-0.894256
-1.08563
-1.24777
-1.29638
-1.08314
-0.44409
0.811887
1.92565
2.24215
2.14674
1.887
1.58554
1.29546
1.03767
0.81814
0.636089
0.487754
0.368241
0.272407
0.195276
0.132269
0.0792096
0.0322571
-0.0122021
-0.0577333
-0.108026
-0.167111
-0.239538
-0.330526
-0.445893
-0.591713
-0.773302
-0.992367
-1.24022
-1.48198
-1.62217
-1.45128
-0.626433
1.16589
2.59399
2.78299
2.52575
2.14033
1.75243
1.4044
1.10793
0.862663
0.663627
0.50422
0.377646
0.277468
0.197778
0.133384
0.0796732
0.032489
-0.0120098
-0.0576061
-0.108224
-0.16824
-0.242744
-0.337862
-0.460866
-0.620183
-0.825049
-1.08349
-1.39657
-1.74184
-2.02593
-1.98302
-0.915824
1.74604
3.57241
3.43574
2.93734
2.39477
1.9098
1.50089
1.16577
0.895969
0.681548
0.512719
0.380649
0.277562
0.196577
0.131916
0.0785651
0.0320849
-0.0115304
-0.0562326
-0.106105
-0.165804
-0.240878
-0.338339
-0.466905
-0.637441
-0.863611
-1.16119
-1.54515
-2.01727
-2.51168
-2.77101
-1.3964
2.74296
5.04203
4.17929
3.36053
2.63536
2.04868
1.57939
1.20771
0.915798
0.688382
0.512285
0.376612
0.272292
0.191417
0.127711
0.0758001
0.0309998
-0.0107674
-0.0535773
-0.101562
-0.159582
-0.233502
-0.331157
-0.462602
-0.640979
-0.884551
-1.21755
-1.67198
-2.28747
-3.05647
-3.96772
-2.23166
4.53694
7.30269
4.91239
3.76094
2.84195
2.15878
1.63403
1.23017
0.919903
0.68272
0.502019
0.364955
0.261331
0.182092
0.120649
0.0713189
0.0291917
-0.00973253
-0.0496397
-0.094545
-0.149446
-0.220282
-0.315651
-0.446724
-0.628419
-0.883383
-1.24385
-1.75888
-2.51966
-3.56605
-5.8266
-3.74893
)
;

boundaryField
{
    left
    {
        type            calculated;
        value           uniform 0;
    }
    right
    {
        type            calculated;
        value           uniform 0;
    }
    interface
    {
        type            calculated;
        value           nonuniform List<scalar> 
32
(
4.53694
7.30269
4.91239
3.76094
2.84195
2.15878
1.63403
1.23017
0.919903
0.68272
0.502019
0.364955
0.261331
0.182092
0.120649
0.0713189
0.0291917
-0.00973253
-0.0496397
-0.094545
-0.149446
-0.220282
-0.315651
-0.446724
-0.628419
-0.883383
-1.24385
-1.75888
-2.51966
-3.56605
-5.8266
-3.74893
)
;
    }
    bottom
    {
        type            calculated;
        value           nonuniform List<scalar> 
32
(
0.0108217
0.0305767
0.0454706
0.0542252
0.0572019
0.055681
0.0511864
0.0451002
0.0384284
0.0318537
0.0257665
0.0203421
0.0156144
0.01153
0.00798462
0.00484611
0.00196874
-0.00079841
-0.00360612
-0.00659978
-0.00991126
-0.0136442
-0.0178485
-0.0224805
-0.0273453
-0.0320265
-0.0358203
-0.0377191
-0.0365201
-0.0311466
-0.0212022
-0.0075504
)
;
    }
    defaultFaces
    {
        type            empty;
    }
}


// ************************************************************************* //
