/*--------------------------------*- C++ -*----------------------------------*\
| =========                 |                                                 |
| \\      /  F ield         | OpenFOAM: The Open Source CFD Toolbox           |
|  \\    /   O peration     | Version:  4.1                                   |
|   \\  /    A nd           | Web:      www.OpenFOAM.org                      |
|    \\/     M anipulation  |                                                 |
\*---------------------------------------------------------------------------*/
FoamFile
{
    version     2.0;
    format      ascii;
    class       surfaceScalarField;
    location    "0.8";
    object      phi;
}
// * * * * * * * * * * * * * * * * * * * * * * * * * * * * * * * * * * * * * //

dimensions      [1 0 -1 0 0 0 0];

internalField   nonuniform List<scalar> 
23692
(
9.30864e-05
-6.84293e-09
9.30916e-05
-5.16011e-09
9.30851e-05
6.65778e-09
9.30575e-05
2.77395e-08
9.30037e-05
5.39192e-08
9.29244e-05
7.95179e-08
9.28251e-05
9.96216e-08
9.27137e-05
1.11704e-07
9.25982e-05
1.15894e-07
9.24845e-05
1.14141e-07
9.23761e-05
1.09002e-07
9.2274e-05
1.02703e-07
9.2178e-05
9.66973e-08
9.20871e-05
9.16598e-08
9.20003e-05
8.77022e-08
9.19167e-05
8.46325e-08
9.18356e-05
8.21572e-08
9.17568e-05
8.00031e-08
9.16802e-05
7.79572e-08
9.16058e-05
7.58928e-08
9.15337e-05
7.37354e-08
9.1464e-05
7.1449e-08
9.13969e-05
6.90302e-08
9.13324e-05
6.64766e-08
9.12709e-05
6.38007e-08
9.12122e-05
6.10085e-08
9.11566e-05
5.81144e-08
9.11042e-05
5.51214e-08
9.1055e-05
5.2043e-08
9.10091e-05
4.8886e-08
9.09666e-05
4.56625e-08
9.09276e-05
4.23846e-08
9.0892e-05
3.90684e-08
9.086e-05
3.57347e-08
9.08314e-05
3.24036e-08
9.08063e-05
2.91053e-08
9.07846e-05
2.58677e-08
9.07661e-05
2.27267e-08
9.07509e-05
1.97235e-08
9.07386e-05
1.68974e-08
9.0729e-05
1.42952e-08
9.07219e-05
1.19682e-08
9.0717e-05
9.96848e-09
9.07138e-05
8.35272e-09
9.07118e-05
7.18214e-09
9.07107e-05
6.52092e-09
9.07097e-05
6.43947e-09
9.07083e-05
7.01044e-09
9.07056e-05
8.31366e-09
9.0701e-05
1.04389e-08
9.06933e-05
1.34816e-08
9.06817e-05
1.75503e-08
9.06649e-05
2.27651e-08
9.06417e-05
2.92633e-08
9.06107e-05
3.72055e-08
9.05701e-05
4.67742e-08
9.05181e-05
5.81872e-08
9.04526e-05
7.17014e-08
9.03713e-05
8.76241e-08
9.02713e-05
1.06328e-07
9.01494e-05
1.28268e-07
9.00017e-05
1.54005e-07
8.98238e-05
1.8424e-07
8.96103e-05
2.19854e-07
8.93547e-05
2.61974e-07
8.90491e-05
3.12052e-07
8.86834e-05
3.71992e-07
8.82454e-05
4.44325e-07
8.77193e-05
5.3247e-07
8.70845e-05
6.41132e-07
8.63139e-05
7.76903e-07
8.53709e-05
9.49204e-07
8.42053e-05
1.17177e-06
8.27465e-05
1.46507e-06
8.08924e-05
1.86015e-06
7.84935e-05
2.40502e-06
7.5325e-05
3.17459e-06
7.10435e-05
4.28752e-06
6.51042e-05
5.94525e-06
5.65822e-05
8.52784e-06
1.3048e-05
4.354e-05
9.96068e-05
-1.42395e-08
9.96126e-05
-1.09585e-08
9.9606e-05
1.33215e-08
9.95771e-05
5.68224e-08
9.95203e-05
1.10928e-07
9.94361e-05
1.6392e-07
9.93304e-05
2.05614e-07
9.92117e-05
2.30752e-07
9.90885e-05
2.39576e-07
9.8967e-05
2.36087e-07
9.8851e-05
2.25562e-07
9.87418e-05
2.12598e-07
9.8639e-05
2.00212e-07
9.85417e-05
1.89806e-07
9.84488e-05
1.81619e-07
9.83592e-05
1.75262e-07
9.82724e-05
1.70134e-07
9.81881e-05
1.65666e-07
9.8106e-05
1.61436e-07
9.80263e-05
1.57167e-07
9.79491e-05
1.52709e-07
9.78744e-05
1.47996e-07
9.78025e-05
1.43006e-07
9.77334e-05
1.37747e-07
9.76673e-05
1.32236e-07
9.76044e-05
1.26493e-07
9.75446e-05
1.20534e-07
9.74883e-05
1.14383e-07
9.74353e-05
1.08055e-07
9.73858e-05
1.01567e-07
9.734e-05
9.49445e-08
9.72977e-05
8.82139e-08
9.72591e-05
8.14084e-08
9.72242e-05
7.45672e-08
9.7193e-05
6.7739e-08
9.71654e-05
6.09777e-08
9.71413e-05
5.4348e-08
9.71208e-05
4.79217e-08
9.71035e-05
4.17788e-08
9.70893e-05
3.60061e-08
9.70779e-05
3.06999e-08
9.70692e-05
2.59606e-08
9.70626e-05
2.19003e-08
9.70578e-05
1.86361e-08
9.70543e-05
1.62923e-08
9.70516e-05
1.5001e-08
9.7049e-05
1.49048e-08
9.70458e-05
1.61564e-08
9.70413e-05
1.89207e-08
9.70345e-05
2.33764e-08
9.70245e-05
2.97254e-08
9.70102e-05
3.81844e-08
9.69904e-05
4.90019e-08
9.69637e-05
6.24598e-08
9.69286e-05
7.88812e-08
9.68833e-05
9.8641e-08
9.6826e-05
1.2218e-07
9.67543e-05
1.50018e-07
9.66659e-05
1.82778e-07
9.65578e-05
2.21212e-07
9.64266e-05
2.66234e-07
9.62684e-05
3.18968e-07
9.60787e-05
3.8081e-07
9.58518e-05
4.53515e-07
9.55813e-05
5.39304e-07
9.52591e-05
6.4103e-07
9.48755e-05
7.62397e-07
9.44184e-05
9.08287e-07
9.38724e-05
1.08522e-06
9.32182e-05
1.30204e-06
9.24309e-05
1.57092e-06
9.14779e-05
1.90888e-06
9.03163e-05
2.34005e-06
8.88889e-05
2.89909e-06
8.71196e-05
3.63605e-06
8.49079e-05
4.62318e-06
8.21267e-05
5.9623e-06
7.86309e-05
7.78975e-06
7.43075e-05
1.0275e-05
6.92896e-05
1.3552e-05
1.72086e-05
6.51353e-05
0.000106584
-2.22446e-08
0.000106591
-1.76072e-08
0.000106584
1.96343e-08
0.000106555
8.66947e-08
0.000106495
1.70352e-07
0.000106407
2.52516e-07
0.000106296
3.17404e-07
0.00010617
3.56795e-07
0.000106039
3.70956e-07
0.00010591
3.65994e-07
0.000105786
3.50024e-07
0.000105669
3.30157e-07
0.000105559
3.11071e-07
0.000105455
2.94972e-07
0.000105355
2.82264e-07
0.000105259
2.72368e-07
0.000105166
2.64369e-07
0.000105076
2.57407e-07
0.000104988
2.50823e-07
0.000104903
2.44196e-07
0.00010482
2.37293e-07
0.00010474
2.30006e-07
0.000104663
2.22305e-07
0.000104589
2.14198e-07
0.000104518
2.05709e-07
0.00010445
1.9687e-07
0.000104386
1.87711e-07
0.000104325
1.7826e-07
0.000104268
1.6854e-07
0.000104214
1.58587e-07
0.000104164
1.48432e-07
0.000104118
1.38118e-07
0.000104076
1.27699e-07
0.000104037
1.17235e-07
0.000104003
1.06797e-07
0.000103972
9.64748e-08
0.000103944
8.63622e-08
0.000103921
7.65737e-08
0.0001039
6.72316e-08
0.000103883
5.84724e-08
0.000103869
5.04393e-08
0.000103857
4.3291e-08
0.000103848
3.71994e-08
0.00010384
3.23428e-08
0.000103833
2.89135e-08
0.000103827
2.71157e-08
0.000103821
2.71676e-08
0.000103814
2.93025e-08
0.000103806
3.37743e-08
0.000103795
4.08589e-08
0.000103781
5.08571e-08
0.000103762
6.41072e-08
0.000103736
8.09855e-08
0.000103704
1.01919e-07
0.000103662
1.27397e-07
0.00010361
1.57989e-07
0.000103545
1.94354e-07
0.000103465
2.37277e-07
0.000103367
2.8769e-07
0.000103249
3.46709e-07
0.000103107
4.1569e-07
0.000102937
4.96292e-07
0.000102734
5.90562e-07
0.000102494
7.01045e-07
0.00010221
8.30945e-07
0.000101874
9.84328e-07
0.000101477
1.16642e-06
0.000101009
1.38398e-06
0.000100455
1.64591e-06
9.98003e-05
1.964e-06
9.90244e-05
2.35404e-06
9.81031e-05
2.83739e-06
9.70072e-05
3.44306e-06
9.57028e-05
4.21049e-06
9.41533e-05
5.19264e-06
9.23249e-05
6.45857e-06
9.02021e-05
8.09203e-06
8.78202e-05
1.01784e-05
8.53386e-05
1.27635e-05
8.31763e-05
1.5721e-05
1.83832e-05
8.20084e-05
0.00011405
-3.09373e-08
0.000114057
-2.53494e-08
0.000114052
2.51038e-08
0.000114022
1.16587e-07
0.000113962
2.31215e-07
0.00011387
3.44282e-07
0.000113754
4.34093e-07
0.000113622
4.89199e-07
0.000113484
5.09733e-07
0.000113346
5.03885e-07
0.000113214
4.82675e-07
0.000113089
4.55828e-07
0.000112971
4.29808e-07
0.00011286
4.07711e-07
0.000112753
3.90161e-07
0.00011265
3.76429e-07
0.00011255
3.65302e-07
0.000112454
3.55611e-07
0.00011236
3.46474e-07
0.000112268
3.37312e-07
0.00011218
3.27802e-07
0.000112094
3.17793e-07
0.000112012
3.07241e-07
0.000111932
2.96151e-07
0.000111856
2.84558e-07
0.000111783
2.72505e-07
0.000111714
2.60027e-07
0.000111648
2.47161e-07
0.000111587
2.3395e-07
0.000111528
2.20431e-07
0.000111474
2.06655e-07
0.000111424
1.92679e-07
0.000111377
1.78575e-07
0.000111334
1.64427e-07
0.000111295
1.50337e-07
0.00011126
1.3642e-07
0.000111229
1.22812e-07
0.000111201
1.09666e-07
0.000111177
9.71493e-08
0.000111155
8.54461e-08
0.000111137
7.47559e-08
0.000111121
6.52961e-08
0.000111107
5.72952e-08
0.000111095
5.10009e-08
0.000111083
4.66729e-08
0.000111072
4.45894e-08
0.000111061
4.50469e-08
0.000111049
4.83621e-08
0.000111035
5.48774e-08
0.000111018
6.49651e-08
0.000110997
7.90349e-08
0.000110971
9.75381e-08
0.000110938
1.20978e-07
0.000110897
1.49929e-07
0.000110847
1.85042e-07
0.000110786
2.27068e-07
0.000110711
2.76885e-07
0.00011062
3.3552e-07
0.000110511
4.0419e-07
0.000110381
4.84347e-07
0.000110227
5.77743e-07
0.000110045
6.86496e-07
0.00010983
8.13202e-07
0.000109578
9.61057e-07
0.000109282
1.13403e-06
0.000108937
1.33708e-06
0.000108535
1.57648e-06
0.000108067
1.86019e-06
0.000107522
2.19839e-06
0.000106889
2.60421e-06
0.000106157
3.09459e-06
0.00010531
3.69145e-06
0.000104338
4.42294e-06
0.000103231
5.32466e-06
0.000101991
6.44014e-06
0.000100638
7.81886e-06
9.92296e-05
9.5083e-06
9.78822e-05
1.15333e-05
9.68023e-05
1.38506e-05
9.62734e-05
1.62571e-05
1.82402e-05
9.64236e-05
0.000122038
-4.04162e-08
0.000122048
-3.44759e-08
0.000122044
2.91206e-08
0.000122015
1.45536e-07
0.000121954
2.9226e-07
0.000121861
4.37846e-07
0.000121741
5.54426e-07
0.000121604
6.27012e-07
0.000121458
6.55367e-07
0.000121313
6.4962e-07
0.000121173
6.23694e-07
0.00012104
5.90013e-07
0.000120913
5.56935e-07
0.000120794
5.28563e-07
0.000120679
5.05833e-07
0.000120569
4.87917e-07
0.000120462
4.73333e-07
0.000120359
4.60635e-07
0.000120258
4.487e-07
0.000120161
4.36792e-07
0.000120066
4.24492e-07
0.000119975
4.11602e-07
0.000119886
3.98055e-07
0.000119801
3.83857e-07
0.00011972
3.69048e-07
0.000119642
3.53673e-07
0.000119567
3.37782e-07
0.000119497
3.21425e-07
0.00011943
3.04649e-07
0.000119366
2.87509e-07
0.000119307
2.70068e-07
0.000119252
2.52401e-07
0.0001192
2.34601e-07
0.000119153
2.16776e-07
0.000119109
1.99056e-07
0.000119069
1.8159e-07
0.000119033
1.64553e-07
0.000119
1.48137e-07
0.00011897
1.32558e-07
0.000118944
1.18051e-07
0.00011892
1.04871e-07
0.000118898
9.3291e-08
0.000118879
8.36067e-08
0.00011886
7.61286e-08
0.000118843
7.11884e-08
0.000118825
6.91381e-08
0.000118807
7.03498e-08
0.000118787
7.52277e-08
0.000118765
8.4201e-08
0.00011874
9.77381e-08
0.000118711
1.16351e-07
0.000118675
1.40602e-07
0.000118633
1.71121e-07
0.000118582
2.08613e-07
0.000118521
2.53883e-07
0.000118449
3.07852e-07
0.000118362
3.71585e-07
0.000118259
4.46325e-07
0.000118138
5.33533e-07
0.000117996
6.34937e-07
0.000117829
7.526e-07
0.000117635
8.88997e-07
0.00011741
1.04711e-06
0.000117149
1.23058e-06
0.000116847
1.44382e-06
0.0001165
1.69228e-06
0.000116102
1.98266e-06
0.000115648
2.32326e-06
0.00011513
2.72436e-06
0.000114544
3.19871e-06
0.000113885
3.76202e-06
0.000113151
4.43352e-06
0.000112346
5.23623e-06
0.000111482
6.19671e-06
0.000110586
7.34352e-06
0.00010971
8.70293e-06
0.000108937
1.02894e-05
0.000108391
1.20874e-05
0.000108229
1.40203e-05
0.000108588
1.59052e-05
1.74119e-05
0.000109424
0.000130587
-5.07864e-08
0.000130598
-4.53167e-08
0.000130596
3.09781e-08
0.000130569
1.72385e-07
0.00013051
3.51965e-07
0.000130417
5.31522e-07
0.000130295
6.76811e-07
0.000130153
7.68971e-07
0.000130002
8.07042e-07
0.000129849
8.02857e-07
0.000129701
7.73134e-07
0.000129559
7.33031e-07
0.000129424
6.92921e-07
0.000129295
6.58042e-07
0.000129172
6.29771e-07
0.000129054
6.0727e-07
0.000128941
5.88844e-07
0.00012883
5.72787e-07
0.000128723
5.57754e-07
0.000128619
5.42849e-07
0.000128518
5.27549e-07
0.000128421
5.11603e-07
0.000128326
4.94915e-07
0.000128236
4.77485e-07
0.000128148
4.5935e-07
0.000128065
4.4057e-07
0.000127985
4.212e-07
0.000127909
4.01297e-07
0.000127837
3.80925e-07
0.000127768
3.60149e-07
0.000127704
3.3905e-07
0.000127643
3.17718e-07
0.000127586
2.96269e-07
0.000127533
2.74839e-07
0.000127484
2.53584e-07
0.000127439
2.32694e-07
0.000127397
2.12375e-07
0.000127358
1.92868e-07
0.000127322
1.74434e-07
0.000127289
1.5736e-07
0.000127259
1.41953e-07
0.00012723
1.2855e-07
0.000127204
1.17505e-07
0.000127178
1.09197e-07
0.000127152
1.04025e-07
0.000127126
1.02415e-07
0.0001271
1.04818e-07
0.000127071
1.11713e-07
0.000127039
1.2362e-07
0.000127004
1.41096e-07
0.000126964
1.64749e-07
0.000126918
1.95245e-07
0.000126864
2.33324e-07
0.000126801
2.79812e-07
0.000126728
3.35644e-07
0.000126642
4.01882e-07
0.000126543
4.79746e-07
0.000126427
5.70646e-07
0.000126294
6.76222e-07
0.000126139
7.98396e-07
0.000125961
9.39431e-07
0.000125757
1.102e-06
0.000125524
1.28929e-06
0.000125258
1.50509e-06
0.000124957
1.75393e-06
0.000124617
2.04124e-06
0.000124235
2.37353e-06
0.000123808
2.75857e-06
0.000123336
3.20562e-06
0.000122818
3.72564e-06
0.000122257
4.33136e-06
0.000121662
5.03729e-06
0.000121048
5.85924e-06
0.00012044
6.81327e-06
0.000119879
7.91325e-06
0.000119424
9.16651e-06
0.000119156
1.05661e-05
0.000119173
1.20787e-05
0.000119573
1.36287e-05
0.000120405
1.50812e-05
1.62397e-05
0.000121586
0.000139734
-6.21499e-08
0.000139747
-5.82156e-08
0.000139748
2.9918e-08
0.000139725
1.95879e-07
0.000139669
4.08627e-07
0.000139577
6.23373e-07
0.000139455
7.99372e-07
0.000139311
9.13522e-07
0.000139155
9.63685e-07
0.000138995
9.63024e-07
0.000138838
9.3086e-07
0.000138687
8.85067e-07
0.000138543
8.3813e-07
0.000138406
7.96591e-07
0.000138274
7.62413e-07
0.000138148
7.34875e-07
0.000138027
7.12151e-07
0.000137909
6.9232e-07
0.000137795
6.73833e-07
0.000137684
6.55633e-07
0.000137577
6.37094e-07
0.000137474
6.17894e-07
0.000137373
5.9791e-07
0.000137277
5.77124e-07
0.000137184
5.55573e-07
0.000137095
5.33315e-07
0.000137009
5.1042e-07
0.000136928
4.86952e-07
0.00013685
4.62985e-07
0.000136776
4.38601e-07
0.000136706
4.13895e-07
0.000136639
3.8898e-07
0.000136577
3.63995e-07
0.000136518
3.391e-07
0.000136463
3.14486e-07
0.000136411
2.90372e-07
0.000136363
2.6701e-07
0.000136318
2.4468e-07
0.000136275
2.23691e-07
0.000136235
2.04379e-07
0.000136197
1.87111e-07
0.00013616
1.72275e-07
0.000136125
1.6029e-07
0.00013609
1.51596e-07
0.000136055
1.46661e-07
0.00013602
1.45977e-07
0.000135983
1.50069e-07
0.000135943
1.59493e-07
0.000135901
1.74844e-07
0.000135854
1.96761e-07
0.000135801
2.25936e-07
0.000135742
2.63126e-07
0.000135675
3.09161e-07
0.000135599
3.64966e-07
0.000135512
4.31572e-07
0.000135413
5.10146e-07
0.0001353
6.02012e-07
0.000135172
7.08682e-07
0.000135025
8.31894e-07
0.00013486
9.73656e-07
0.000134672
1.13629e-06
0.000134461
1.32251e-06
0.000134225
1.53546e-06
0.00013396
1.77879e-06
0.000133667
2.05679e-06
0.000133344
2.37439e-06
0.000132989
2.73734e-06
0.000132605
3.15217e-06
0.000132194
3.62633e-06
0.000131761
4.16805e-06
0.000131316
4.78623e-06
0.000130872
5.49e-06
0.000130453
6.28798e-06
0.000130088
7.18689e-06
0.000129821
8.18942e-06
0.000129706
9.29081e-06
0.000129808
1.04739e-05
0.000130192
1.17031e-05
0.000130912
1.29174e-05
0.000131975
1.40271e-05
1.49205e-05
0.000133303
0.000149522
-7.46075e-08
0.000149537
-7.35121e-08
0.000149542
2.51873e-08
0.000149524
2.14751e-07
0.000149472
4.60491e-07
0.000149385
7.11359e-07
0.000149264
9.20065e-07
0.000149119
1.05889e-06
0.00014896
1.12397e-06
0.000148794
1.1293e-06
0.000148629
1.09652e-06
0.000148469
1.04611e-06
0.000148316
9.92773e-07
0.000148169
9.44521e-07
0.000148029
9.04093e-07
0.000147894
8.71035e-07
0.000147765
8.43505e-07
0.00014764
8.19425e-07
0.000147518
7.97073e-07
0.000147401
7.75239e-07
0.000147288
7.53185e-07
0.000147178
7.3052e-07
0.000147072
7.07073e-07
0.000146969
6.82808e-07
0.000146871
6.57754e-07
0.000146776
6.3197e-07
0.000146685
6.05526e-07
0.000146597
5.78503e-07
0.000146514
5.50984e-07
0.000146434
5.23064e-07
0.000146358
4.94858e-07
0.000146286
4.66502e-07
0.000146218
4.38154e-07
0.000146153
4.10004e-07
0.000146091
3.82278e-07
0.000146032
3.55227e-07
0.000145977
3.29143e-07
0.000145924
3.04346e-07
0.000145874
2.81192e-07
0.000145825
2.60068e-07
0.000145779
2.41389e-07
0.000145733
2.25604e-07
0.000145688
2.13181e-07
0.000145643
2.04624e-07
0.000145598
2.0046e-07
0.000145551
2.01246e-07
0.000145503
2.0757e-07
0.000145451
2.20054e-07
0.000145395
2.39359e-07
0.000145335
2.66192e-07
0.000145269
3.01312e-07
0.000145196
3.45543e-07
0.000145115
3.99784e-07
0.000145025
4.6502e-07
0.000144924
5.42347e-07
0.000144811
6.32979e-07
0.000144685
7.38284e-07
0.000144543
8.598e-07
0.000144386
9.99267e-07
0.000144211
1.15866e-06
0.000144017
1.34021e-06
0.000143804
1.54647e-06
0.000143569
1.78033e-06
0.000143313
2.04505e-06
0.000143036
2.34431e-06
0.000142738
2.68221e-06
0.000142422
3.06328e-06
0.000142092
3.4924e-06
0.000141754
3.97475e-06
0.000141416
4.51559e-06
0.000141093
5.11991e-06
0.000140801
5.79195e-06
0.000140564
6.53438e-06
0.000140414
7.34721e-06
0.000140387
8.22615e-06
0.000140527
9.16059e-06
0.00014088
1.0131e-05
0.000141486
1.11067e-05
0.000142369
1.20435e-05
0.000143521
1.28853e-05
1.35701e-05
0.00014488
0.000159996
-8.82385e-08
0.000160014
-9.14887e-08
0.000160023
1.61308e-08
0.00016001
2.27849e-07
0.000159965
5.05923e-07
0.000159883
7.93506e-07
0.000159767
1.03683e-06
0.000159623
1.20319e-06
0.000159461
1.28638e-06
0.000159291
1.30065e-06
0.000159119
1.26949e-06
0.00015895
1.21591e-06
0.000158787
1.15684e-06
0.000158631
1.10196e-06
0.000158482
1.055e-06
0.000158338
1.01595e-06
0.000158201
9.83069e-07
0.000158068
9.54223e-07
0.00015794
9.27552e-07
0.000157816
9.01709e-07
0.000157696
8.75844e-07
0.00015758
8.49482e-07
0.000157468
8.22404e-07
0.00015736
7.94544e-07
0.000157255
7.65915e-07
0.000157155
7.36573e-07
0.000157058
7.0659e-07
0.000156965
6.76054e-07
0.000156876
6.45063e-07
0.00015679
6.13729e-07
0.000156708
5.82183e-07
0.00015663
5.50583e-07
0.000156555
5.19112e-07
0.000156483
4.87993e-07
0.000156415
4.57475e-07
0.000156349
4.2785e-07
0.000156285
3.99444e-07
0.000156225
3.72621e-07
0.000156166
3.47779e-07
0.000156108
3.25347e-07
0.000156052
3.05793e-07
0.000155996
2.89609e-07
0.00015594
2.77321e-07
0.000155884
2.69481e-07
0.000155827
2.6667e-07
0.000155768
2.69497e-07
0.000155706
2.78603e-07
0.000155641
2.94664e-07
0.000155572
3.1839e-07
0.000155497
3.50537e-07
0.000155417
3.9191e-07
0.000155329
4.43372e-07
0.000155233
5.05854e-07
0.000155128
5.80367e-07
0.000155013
6.68016e-07
0.000154886
7.70014e-07
0.000154748
8.87696e-07
0.000154596
1.02254e-06
0.000154429
1.17619e-06
0.000154248
1.35045e-06
0.000154052
1.54733e-06
0.00015384
1.76907e-06
0.000153613
2.01808e-06
0.000153372
2.29702e-06
0.000153119
2.60873e-06
0.000152856
2.95624e-06
0.000152587
3.34265e-06
0.000152319
3.77103e-06
0.000152061
4.24431e-06
0.000151822
4.76494e-06
0.000151618
5.33461e-06
0.000151467
5.95377e-06
0.000151391
6.62098e-06
0.000151417
7.33219e-06
0.000151574
8.07982e-06
0.000151893
8.85171e-06
0.000152404
9.63019e-06
0.00015313
1.03914e-05
0.000154078
1.11056e-05
0.000155235
1.17389e-05
1.2257e-05
0.000156558
0.000171203
-1.03096e-07
0.000171224
-1.12341e-07
0.000171238
2.27136e-09
0.000171232
2.34297e-07
0.000171194
5.43599e-07
0.00017112
8.6812e-07
0.00017101
1.14779e-06
0.000170869
1.34458e-06
0.000170707
1.44932e-06
0.000170532
1.47578e-06
0.000170354
1.44889e-06
0.000170177
1.3939e-06
0.000170005
1.33005e-06
0.00016984
1.26881e-06
0.000169681
1.21513e-06
0.000169529
1.16965e-06
0.000169383
1.1309e-06
0.000169243
1.09677e-06
0.000169108
1.0653e-06
0.000168977
1.03506e-06
0.000168851
1.00507e-06
0.000168729
9.74782e-07
0.000168611
9.4391e-07
0.000168497
9.12349e-07
0.000168386
8.80093e-07
0.00016828
8.47186e-07
0.000168178
8.13705e-07
0.000168079
7.79744e-07
0.000167984
7.4541e-07
0.000167892
7.10832e-07
0.000167804
6.76162e-07
0.000167719
6.41579e-07
0.000167637
6.07294e-07
0.000167558
5.73552e-07
0.000167482
5.40639e-07
0.000167408
5.08878e-07
0.000167336
4.78629e-07
0.000167267
4.50294e-07
0.000167198
4.24307e-07
0.000167131
4.01144e-07
0.000167064
3.81307e-07
0.000166997
3.65336e-07
0.00016693
3.53796e-07
0.000166861
3.47283e-07
0.000166791
3.46417e-07
0.000166718
3.51849e-07
0.000166643
3.64258e-07
0.000166563
3.84354e-07
0.000166479
4.12877e-07
0.000166389
4.50608e-07
0.000166294
4.98368e-07
0.000166191
5.57027e-07
0.00016608
6.27513e-07
0.00016596
7.10814e-07
0.000165832
8.07993e-07
0.000165693
9.20193e-07
0.000165543
1.04865e-06
0.000165382
1.1947e-06
0.00016521
1.35977e-06
0.000165027
1.54542e-06
0.000164832
1.7533e-06
0.000164628
1.98516e-06
0.000164415
2.24287e-06
0.000164195
2.5283e-06
0.000163972
2.84337e-06
0.00016375
3.18992e-06
0.000163535
3.56964e-06
0.000163333
3.98393e-06
0.000163155
4.43371e-06
0.000163013
4.91921e-06
0.000162919
5.43967e-06
0.000162891
5.99304e-06
0.000162948
6.57555e-06
0.00016311
7.18132e-06
0.0001634
7.80196e-06
0.000163836
8.4262e-06
0.000164438
9.03975e-06
0.000165215
9.62543e-06
0.000166168
1.01639e-05
0.000167282
1.06349e-05
1.102e-05
0.00016853
0.000183195
-1.19188e-07
0.000183219
-1.36139e-07
0.000183238
-1.66196e-08
0.000183239
2.33595e-07
0.00018321
5.72658e-07
0.000183145
9.33984e-07
0.000183042
1.25145e-06
0.000182905
1.48144e-06
0.000182744
1.61119e-06
0.000182568
1.6533e-06
0.000182384
1.63358e-06
0.0001822
1.57924e-06
0.000182019
1.5118e-06
0.000181845
1.4447e-06
0.000181678
1.38428e-06
0.000181517
1.33204e-06
0.000181363
1.28695e-06
0.000181215
1.24703e-06
0.000181073
1.21033e-06
0.000180936
1.1753e-06
0.000180803
1.14089e-06
0.000180675
1.10645e-06
0.000180551
1.07164e-06
0.000180431
1.0363e-06
0.000180315
1.00039e-06
0.000180202
9.63957e-07
0.000180094
9.27062e-07
0.000179989
8.89805e-07
0.000179888
8.52309e-07
0.00017979
8.14717e-07
0.000179695
7.77199e-07
0.000179603
7.39957e-07
0.000179514
7.03228e-07
0.000179427
6.67284e-07
0.000179343
6.32439e-07
0.00017926
5.99044e-07
0.000179179
5.67494e-07
0.0001791
5.38222e-07
0.000179021
5.11695e-07
0.000178943
4.88421e-07
0.000178864
4.68938e-07
0.000178785
4.53814e-07
0.000178705
4.4365e-07
0.000178623
4.39066e-07
0.000178539
4.40713e-07
0.000178452
4.49266e-07
0.000178361
4.65421e-07
0.000178267
4.89899e-07
0.000178167
5.23451e-07
0.000178062
5.66851e-07
0.000177951
6.20907e-07
0.000177833
6.86458e-07
0.000177708
7.64385e-07
0.000177575
8.55607e-07
0.000177434
9.6109e-07
0.000177284
1.08185e-06
0.000177126
1.21894e-06
0.000176959
1.37349e-06
0.000176784
1.54665e-06
0.000176602
1.73961e-06
0.000176415
1.95358e-06
0.000176222
2.1898e-06
0.000176028
2.44944e-06
0.000175835
2.7336e-06
0.000175648
3.04326e-06
0.000175471
3.37917e-06
0.000175311
3.74177e-06
0.000175176
4.13105e-06
0.000175076
4.54642e-06
0.000175021
4.98655e-06
0.000175024
5.44918e-06
0.000175098
5.93089e-06
0.000175259
6.42698e-06
0.000175521
6.93126e-06
0.000175899
7.43596e-06
0.000176406
7.93175e-06
0.000177049
8.40784e-06
0.000177834
8.85241e-06
0.000178757
9.25316e-06
0.000179805
9.59832e-06
9.87787e-06
0.000180959
0.000196027
-1.3649e-07
0.000196054
-1.62819e-07
0.000196078
-4.04908e-08
0.000196086
2.25689e-07
0.000196066
5.92824e-07
0.00019601
9.90483e-07
0.000195915
1.34683e-06
0.000195785
1.6125e-06
0.000195626
1.77055e-06
0.000195449
1.83177e-06
0.000195261
1.82222e-06
0.000195071
1.77082e-06
0.000194883
1.70123e-06
0.0001947
1.62898e-06
0.000194524
1.56199e-06
0.000194356
1.50283e-06
0.000194194
1.45104e-06
0.000194039
1.40493e-06
0.000193889
1.3626e-06
0.000193745
1.32245e-06
0.000193606
1.28336e-06
0.000193471
1.24459e-06
0.000193341
1.20573e-06
0.000193215
1.16656e-06
0.000193093
1.12703e-06
0.000192975
1.08715e-06
0.00019286
1.04697e-06
0.000192749
1.00661e-06
0.000192641
9.66198e-07
0.000192536
9.25883e-07
0.000192434
8.85859e-07
0.000192334
8.46348e-07
0.000192237
8.07611e-07
0.000192142
7.69946e-07
0.000192048
7.33692e-07
0.000191956
6.99226e-07
0.000191866
6.66969e-07
0.000191775
6.37378e-07
0.000191685
6.10949e-07
0.000191595
5.8821e-07
0.000191504
5.69723e-07
0.000191412
5.56077e-07
0.000191318
5.47888e-07
0.000191222
5.45794e-07
0.000191123
5.50455e-07
0.000191021
5.62545e-07
0.000190915
5.82762e-07
0.000190804
6.11817e-07
0.000190689
6.50434e-07
0.000190568
6.99357e-07
0.000190442
7.59343e-07
0.000190309
8.31166e-07
0.000190171
9.15613e-07
0.000190025
1.01349e-06
0.000189873
1.12562e-06
0.000189715
1.25283e-06
0.000189551
1.39595e-06
0.000189382
1.55582e-06
0.000189208
1.73327e-06
0.000189032
1.92908e-06
0.000188855
2.14399e-06
0.000188679
2.37866e-06
0.000188508
2.63362e-06
0.000188346
2.90923e-06
0.000188196
3.20564e-06
0.000188066
3.52267e-06
0.000187961
3.85978e-06
0.00018789
4.21596e-06
0.00018786
4.58963e-06
0.000187881
4.97855e-06
0.000187963
5.37969e-06
0.000188118
5.78924e-06
0.000188356
6.20243e-06
0.000188686
6.61364e-06
0.000189119
7.01638e-06
0.00018966
7.40342e-06
0.000190313
7.76703e-06
0.000191079
8.09931e-06
0.000191952
8.39261e-06
0.000192923
8.64013e-06
8.83653e-06
0.000193976
0.000209757
-1.54927e-07
0.000209787
-1.92192e-07
0.000209816
-6.90221e-08
0.000209831
2.10966e-07
0.00020982
6.04393e-07
0.000209773
1.03765e-06
0.000209687
1.43356e-06
0.000209563
1.73695e-06
0.000209408
1.92626e-06
0.000209231
2.00981e-06
0.000209041
2.01342e-06
0.000208846
1.96732e-06
0.000208652
1.89724e-06
0.000208461
1.82078e-06
0.000208278
1.74762e-06
0.000208101
1.68157e-06
0.000207932
1.62292e-06
0.000207769
1.57034e-06
0.000207612
1.52208e-06
0.000207462
1.47657e-06
0.000207316
1.4326e-06
0.000207175
1.38938e-06
0.000207038
1.34641e-06
0.000206906
1.30345e-06
0.000206778
1.26038e-06
0.000206653
1.21719e-06
0.000206531
1.17394e-06
0.000206413
1.13073e-06
0.000206298
1.0877e-06
0.000206185
1.04502e-06
0.000206075
1.0029e-06
0.000205967
9.61577e-07
0.000205861
9.21332e-07
0.000205757
8.82486e-07
0.000205653
8.45395e-07
0.000205551
8.10462e-07
0.000205449
7.78123e-07
0.000205347
7.48855e-07
0.000205244
7.23168e-07
0.000205141
7.01604e-07
0.000205036
6.84734e-07
0.00020493
6.73153e-07
0.000204821
6.67479e-07
0.00020471
6.68345e-07
0.000204596
6.76402e-07
0.000204478
6.92309e-07
0.000204356
7.16733e-07
0.00020423
7.50348e-07
0.000204099
7.93832e-07
0.000203963
8.4786e-07
0.000203822
9.13105e-07
0.000203676
9.9024e-07
0.000203525
1.07992e-06
0.000203369
1.18281e-06
0.000203208
1.29952e-06
0.000203044
1.43068e-06
0.000202877
1.57684e-06
0.000202708
1.73854e-06
0.000202539
1.91623e-06
0.000202372
2.1103e-06
0.000202209
2.32101e-06
0.000202053
2.54849e-06
0.000201908
2.7927e-06
0.000201778
3.05338e-06
0.000201668
3.32998e-06
0.000201583
3.62169e-06
0.000201529
3.92727e-06
0.000201514
4.2451e-06
0.000201545
4.57307e-06
0.000201629
4.90855e-06
0.000201774
5.24839e-06
0.000201989
5.58888e-06
0.000202279
5.92577e-06
0.000202652
6.25436e-06
0.000203113
6.56957e-06
0.000203664
6.8661e-06
0.000204306
7.13858e-06
0.000205037
7.38188e-06
0.000205851
7.59134e-06
0.000206742
7.76306e-06
7.89431e-06
0.000207697
0.00022445
-1.74403e-07
0.000224482
-2.23966e-07
0.000224514
-1.01685e-07
0.000224536
1.90157e-07
0.000224532
6.0815e-07
0.000224494
1.07608e-06
0.000224417
1.51184e-06
0.0002243
1.85448e-06
0.00022415
2.07749e-06
0.000223974
2.18625e-06
0.000223783
2.20582e-06
0.000223584
2.16739e-06
0.000223385
2.09857e-06
0.000223188
2.01906e-06
0.000222998
1.94039e-06
0.000222814
1.86772e-06
0.000222637
1.80222e-06
0.000222467
1.74308e-06
0.000222304
1.68876e-06
0.000222146
1.63774e-06
0.000221993
1.58881e-06
0.000221846
1.5411e-06
0.000221703
1.49407e-06
0.000221563
1.4474e-06
0.000221428
1.40094e-06
0.000221296
1.35467e-06
0.000221167
1.30862e-06
0.000221041
1.2629e-06
0.000220918
1.21764e-06
0.000220797
1.17303e-06
0.000220678
1.12929e-06
0.000220561
1.08667e-06
0.000220445
1.04547e-06
0.00022033
1.00602e-06
0.000220215
9.6871e-07
0.000220101
9.33938e-07
0.000219987
9.02156e-07
0.000219872
8.73848e-07
0.000219756
8.49528e-07
0.000219638
8.29739e-07
0.000219519
8.15046e-07
0.000219398
8.06035e-07
0.000219273
8.03307e-07
0.000219146
8.07475e-07
0.000219016
8.19155e-07
0.000218882
8.38969e-07
0.000218744
8.67531e-07
0.000218602
9.05454e-07
0.000218455
9.53333e-07
0.000218305
1.01175e-06
0.00021815
1.08127e-06
0.000217992
1.16243e-06
0.00021783
1.25572e-06
0.000217666
1.36162e-06
0.000217499
1.48055e-06
0.000217331
1.61285e-06
0.000217164
1.75884e-06
0.000216998
1.91871e-06
0.000216837
2.09258e-06
0.000216682
2.28044e-06
0.000216535
2.48214e-06
0.000216401
2.69737e-06
0.000216284
2.92561e-06
0.000216186
3.16613e-06
0.000216113
3.41793e-06
0.00021607
3.67976e-06
0.000216062
3.95e-06
0.000216096
4.22676e-06
0.000216176
4.50775e-06
0.000216309
4.79037e-06
0.000216501
5.07167e-06
0.000216756
5.34838e-06
0.00021708
5.61698e-06
0.000217475
5.87378e-06
0.000217944
6.115e-06
0.000218488
6.33688e-06
0.000219105
6.53584e-06
0.000219793
6.70861e-06
0.000220546
6.85241e-06
0.000221358
6.96508e-06
7.0453e-06
0.000222221
0.000240171
-1.94792e-07
0.000240205
-2.57794e-07
0.000240241
-1.37825e-07
0.000240267
1.64226e-07
0.000240271
6.0522e-07
0.000240241
1.10681e-06
0.000240171
1.58236e-06
0.000240061
1.96524e-06
0.000239915
2.22383e-06
0.000239743
2.36019e-06
0.000239552
2.39822e-06
0.000239351
2.36971e-06
0.000239147
2.30397e-06
0.000238945
2.22275e-06
0.000238748
2.13944e-06
0.000238558
2.06064e-06
0.000238374
1.98856e-06
0.000238197
1.92296e-06
0.000238027
1.8626e-06
0.000237862
1.8061e-06
0.000237703
1.75224e-06
0.000237548
1.70013e-06
0.000237398
1.64916e-06
0.000237251
1.59898e-06
0.000237108
1.54939e-06
0.000236968
1.50034e-06
0.000236831
1.45186e-06
0.000236697
1.40403e-06
0.000236564
1.35701e-06
0.000236434
1.31097e-06
0.000236305
1.26614e-06
0.000236177
1.2228e-06
0.00023605
1.18124e-06
0.000235923
1.14182e-06
0.000235796
1.10492e-06
0.000235669
1.07094e-06
0.000235541
1.04034e-06
0.000235412
1.01359e-06
0.000235282
9.91213e-07
0.000235149
9.73724e-07
0.000235014
9.61671e-07
0.000234877
9.55615e-07
0.000234736
9.56122e-07
0.000234593
9.63761e-07
0.000234446
9.79098e-07
0.000234295
1.00269e-06
0.000234141
1.03508e-06
0.000233984
1.07679e-06
0.000233823
1.12831e-06
0.000233659
1.19012e-06
0.000233492
1.26262e-06
0.000233323
1.34621e-06
0.000233152
1.4412e-06
0.000232981
1.54787e-06
0.000232811
1.6664e-06
0.000232642
1.79691e-06
0.000232477
1.93944e-06
0.000232317
2.09388e-06
0.000232166
2.26005e-06
0.000232024
2.4376e-06
0.000231896
2.62605e-06
0.000231785
2.82475e-06
0.000231693
3.03285e-06
0.000231626
3.24932e-06
0.000231587
3.47288e-06
0.000231581
3.70206e-06
0.000231612
3.93515e-06
0.000231684
4.17018e-06
0.000231803
4.40499e-06
0.000231972
4.6372e-06
0.000232195
4.86426e-06
0.000232476
5.08349e-06
0.000232817
5.29212e-06
0.000233219
5.48738e-06
0.000233683
5.66658e-06
0.000234208
5.82713e-06
0.000234792
5.96671e-06
0.000235433
6.08332e-06
0.000236125
6.17534e-06
0.000236864
6.24165e-06
6.2817e-06
0.000237642
0.000256993
-2.15958e-07
0.000257028
-2.93298e-07
0.000257068
-1.76729e-07
0.000257098
1.34225e-07
0.000257107
5.96884e-07
0.000257083
1.13112e-06
0.00025702
1.64612e-06
0.000256916
2.06974e-06
0.000256776