/*--------------------------------*- C++ -*----------------------------------*\
| =========                 |                                                 |
| \\      /  F ield         | OpenFOAM: The Open Source CFD Toolbox           |
|  \\    /   O peration     | Version:  4.1                                   |
|   \\  /    A nd           | Web:      www.OpenFOAM.org                      |
|    \\/     M anipulation  |                                                 |
\*---------------------------------------------------------------------------*/
FoamFile
{
    version     2.0;
    format      ascii;
    class       volVectorField;
    location    "0.8";
    object      U;
}
// * * * * * * * * * * * * * * * * * * * * * * * * * * * * * * * * * * * * * //

dimensions      [0 1 -1 0 0 0 0];

internalField   nonuniform List<vector> 
12013
(
(0.100003 -6.88841e-07 0)
(0.100012 -5.26936e-07 0)
(0.100014 7.07227e-07 0)
(0.0999982 2.98543e-06 0)
(0.0999554 5.9126e-06 0)
(0.0998832 8.89078e-06 0)
(0.0997855 1.13598e-05 0)
(0.0996703 1.29917e-05 0)
(0.0995466 1.37488e-05 0)
(0.0994225 1.38125e-05 0)
(0.0993028 1.34558e-05 0)
(0.0991899 1.29338e-05 0)
(0.099084 1.24238e-05 0)
(0.0989843 1.20155e-05 0)
(0.0988895 1.17304e-05 0)
(0.0987987 1.15502e-05 0)
(0.0987109 1.14407e-05 0)
(0.0986257 1.13675e-05 0)
(0.098543 1.13023e-05 0)
(0.0984627 1.12268e-05 0)
(0.0983849 1.11293e-05 0)
(0.0983097 1.10032e-05 0)
(0.0982373 1.08465e-05 0)
(0.0981679 1.06572e-05 0)
(0.0981016 1.04355e-05 0)
(0.0980385 1.01809e-05 0)
(0.0979788 9.8941e-06 0)
(0.0979227 9.57421e-06 0)
(0.0978701 9.22192e-06 0)
(0.0978212 8.83705e-06 0)
(0.0977761 8.42029e-06 0)
(0.0977349 7.9725e-06 0)
(0.0976977 7.4956e-06 0)
(0.0976644 6.99241e-06 0)
(0.0976351 6.46601e-06 0)
(0.0976097 5.92184e-06 0)
(0.0975883 5.36543e-06 0)
(0.0975708 4.80435e-06 0)
(0.097557 4.24786e-06 0)
(0.0975467 3.70589e-06 0)
(0.0975399 3.19046e-06 0)
(0.0975361 2.71604e-06 0)
(0.0975351 2.2977e-06 0)
(0.0975364 1.95318e-06 0)
(0.0975398 1.70274e-06 0)
(0.0975446 1.56856e-06 0)
(0.0975502 1.57606e-06 0)
(0.0975561 1.75295e-06 0)
(0.0975614 2.1309e-06 0)
(0.0975654 2.74641e-06 0)
(0.097567 3.63999e-06 0)
(0.0975653 4.85861e-06 0)
(0.0975591 6.45587e-06 0)
(0.0975471 8.49399e-06 0)
(0.0975278 1.10463e-05 0)
(0.0974996 1.41981e-05 0)
(0.0974606 1.80512e-05 0)
(0.0974088 2.27276e-05 0)
(0.0973416 2.83735e-05 0)
(0.0972564 3.51672e-05 0)
(0.0971499 4.33284e-05 0)
(0.0970184 5.31285e-05 0)
(0.0968574 6.49082e-05 0)
(0.0966617 7.90994e-05 0)
(0.0964249 9.6256e-05 0)
(0.0961394 0.000117098 0)
(0.0957957 0.000142574 0)
(0.095382 0.000173958 0)
(0.0948834 0.000212984 0)
(0.0942806 0.000262062 0)
(0.0935486 0.000324611 0)
(0.0926539 0.000405584 0)
(0.091551 0.000512325 0)
(0.0901767 0.000655992 0)
(0.0884412 0.000853952 0)
(0.0862145 0.0011339 0)
(0.0833034 0.00154109 0)
(0.0794019 0.0021534 0)
(0.0740311 0.0031284 0)
(0.0666205 0.00490736 0)
(0.0582764 0.00947933 0)
(0.100003 -2.12434e-06 0)
(0.100012 -1.6448e-06 0)
(0.100015 2.12841e-06 0)
(0.0999993 9.10969e-06 0)
(0.0999571 1.80877e-05 0)
(0.0998857 2.72303e-05 0)
(0.0997886 3.48163e-05 0)
(0.0996739 3.9837e-05 0)
(0.0995507 4.21742e-05 0)
(0.0994268 4.23817e-05 0)
(0.0993073 4.12971e-05 0)
(0.0991944 3.97019e-05 0)
(0.0990885 3.81406e-05 0)
(0.0989887 3.68892e-05 0)
(0.0988939 3.60145e-05 0)
(0.0988029 3.54611e-05 0)
(0.0987151 3.51244e-05 0)
(0.0986299 3.48989e-05 0)
(0.0985471 3.46991e-05 0)
(0.0984667 3.44677e-05 0)
(0.0983888 3.41696e-05 0)
(0.0983135 3.37851e-05 0)
(0.0982411 3.33061e-05 0)
(0.0981715 3.27284e-05 0)
(0.0981051 3.20517e-05 0)
(0.0980418 3.12754e-05 0)
(0.0979819 3.04e-05 0)
(0.0979255 2.94247e-05 0)
(0.0978726 2.83503e-05 0)
(0.0978234 2.71763e-05 0)
(0.0977779 2.59055e-05 0)
(0.0977363 2.45406e-05 0)
(0.0976985 2.30872e-05 0)
(0.0976646 2.15537e-05 0)
(0.0976347 1.99509e-05 0)
(0.0976086 1.82938e-05 0)
(0.0975865 1.66004e-05 0)
(0.0975681 1.48939e-05 0)
(0.0975534 1.32021e-05 0)
(0.0975421 1.15562e-05 0)
(0.0975342 9.99325e-06 0)
(0.0975292 8.55541e-06 0)
(0.097527 7.29134e-06 0)
(0.097527 6.25561e-06 0)
(0.097529 5.50906e-06 0)
(0.0975323 5.11978e-06 0)
(0.0975364 5.16503e-06 0)
(0.0975406 5.73088e-06 0)
(0.0975443 6.91427e-06 0)
(0.0975465 8.82531e-06 0)
(0.0975463 1.15897e-05 0)
(0.0975427 1.53497e-05 0)
(0.0975346 2.02693e-05 0)
(0.0975207 2.65387e-05 0)
(0.0974995 3.43807e-05 0)
(0.0974695 4.40558e-05 0)
(0.0974287 5.58738e-05 0)
(0.0973751 7.02043e-05 0)
(0.0973064 8.74919e-05 0)
(0.0972199 0.000108278 0)
(0.0971125 0.000133224 0)
(0.0969804 0.000163152 0)
(0.0968196 0.000199087 0)
(0.0966248 0.000242326 0)
(0.0963903 0.000294526 0)
(0.0961086 0.000357835 0)
(0.0957709 0.00043507 0)
(0.0953665 0.000529986 0)
(0.0948816 0.000647666 0)
(0.0942993 0.000795114 0)
(0.0935975 0.000982154 0)
(0.0927478 0.00122283 0)
(0.0917131 0.0015376 0)
(0.0904438 0.00195685 0)
(0.0888743 0.0025264 0)
(0.0869173 0.00331615 0)
(0.0844594 0.00443262 0)
(0.0813513 0.00603616 0)
(0.0774265 0.00836356 0)
(0.0727387 0.0116932 0)
(0.0686408 0.0158937 0)
(0.100003 -3.67975e-06 0)
(0.100012 -2.91928e-06 0)
(0.100016 3.5118e-06 0)
(0.100001 1.54653e-05 0)
(0.0999602 3.08726e-05 0)
(0.0998904 4.65946e-05 0)
(0.099795 5.96717e-05 0)
(0.0996817 6.83606e-05 0)
(0.0995596 7.2445e-05 0)
(0.0994364 7.28642e-05 0)
(0.0993172 7.10492e-05 0)
(0.0992044 6.83404e-05 0)
(0.0990985 6.5675e-05 0)
(0.0989986 6.35309e-05 0)
(0.0989036 6.20274e-05 0)
(0.0988125 6.10723e-05 0)
(0.0987246 6.04887e-05 0)
(0.0986393 6.0097e-05 0)
(0.0985564 5.97526e-05 0)
(0.098476 5.9356e-05 0)
(0.0983981 5.88473e-05 0)
(0.0983227 5.81938e-05 0)
(0.0982501 5.73797e-05 0)
(0.0981804 5.63994e-05 0)
(0.0981137 5.5251e-05 0)
(0.0980502 5.39346e-05 0)
(0.09799 5.245e-05 0)
(0.0979332 5.07974e-05 0)
(0.0978798 4.89763e-05 0)
(0.09783 4.69882e-05 0)
(0.0977839 4.48362e-05 0)
(0.0977415 4.25261e-05 0)
(0.0977029 4.00678e-05 0)
(0.097668 3.74754e-05 0)
(0.097637 3.4768e-05 0)
(0.0976097 3.19711e-05 0)
(0.0975861 2.91163e-05 0)
(0.0975662 2.62434e-05 0)
(0.0975498 2.33994e-05 0)
(0.0975368 2.06389e-05 0)
(0.0975268 1.8025e-05 0)
(0.0975197 1.56302e-05 0)
(0.0975152 1.35384e-05 0)
(0.0975128 1.18424e-05 0)
(0.0975121 1.06467e-05 0)
(0.0975127 1.00681e-05 0)
(0.0975138 1.02384e-05 0)
(0.0975149 1.13052e-05 0)
(0.0975153 1.34344e-05 0)
(0.0975142 1.68137e-05 0)
(0.0975105 2.16566e-05 0)
(0.0975033 2.8206e-05 0)
(0.0974916 3.67413e-05 0)
(0.0974739 4.75854e-05 0)
(0.097449 6.1115e-05 0)
(0.0974152 7.77721e-05 0)
(0.0973709 9.80785e-05 0)
(0.0973139 0.000122657 0)
(0.0972421 0.000152254 0)
(0.0971528 0.000187777 0)
(0.0970432 0.000230328 0)
(0.0969098 0.000281273 0)
(0.0967487 0.000342307 0)
(0.0965552 0.000415561 0)
(0.0963239 0.000503742 0)
(0.0960484 0.000610327 0)
(0.0957209 0.000739837 0)
(0.095332 0.000898225 0)
(0.0948705 0.00109344 0)
(0.0943226 0.00133624 0)
(0.0936714 0.00164139 0)
(0.0928964 0.00202944 0)
(0.0919725 0.0025293 0)
(0.09087 0.003182 0)
(0.0895551 0.00404583 0)
(0.0879933 0.00520269 0)
(0.0861579 0.00676343 0)
(0.0840473 0.00886578 0)
(0.0817291 0.0116496 0)
(0.0794755 0.0151324 0)
(0.0780183 0.0187017 0)
(0.100003 -5.36349e-06 0)
(0.100012 -4.39138e-06 0)
(0.100017 4.77491e-06 0)
(0.100004 2.19178e-05 0)
(0.0999649 4.40947e-05 0)
(0.0998977 6.68005e-05 0)
(0.099805 8.57669e-05 0)
(0.0996941 9.84567e-05 0)
(0.0995739 0.000104523 0)
(0.099452 0.00010529 0)
(0.0993335 0.000102798 0)
(0.099221 9.89736e-05 0)
(0.099115 9.51721e-05 0)
(0.0990149 9.20921e-05 0)
(0.0989198 8.99171e-05 0)
(0.0988285 8.85245e-05 0)
(0.0987405 8.76664e-05 0)
(0.0986551 8.70876e-05 0)
(0.0985722 8.65825e-05 0)
(0.0984918 8.60091e-05 0)
(0.0984139 8.52801e-05 0)
(0.0983385 8.43485e-05 0)
(0.0982659 8.31917e-05 0)
(0.0981961 8.18003e-05 0)
(0.0981292 8.0172e-05 0)
(0.0980655 7.8307e-05 0)
(0.0980049 7.62052e-05 0)
(0.0979476 7.38661e-05 0)
(0.0978938 7.12905e-05 0)
(0.0978433 6.84805e-05 0)
(0.0977964 6.5441e-05 0)
(0.097753 6.21804e-05 0)
(0.0977133 5.8714e-05 0)
(0.0976772 5.50621e-05 0)
(0.0976447 5.1253e-05 0)
(0.0976158 4.73234e-05 0)
(0.0975904 4.33198e-05 0)
(0.0975684 3.92995e-05 0)
(0.0975498 3.533e-05 0)
(0.0975343 3.14906e-05 0)
(0.0975216 2.78721e-05 0)
(0.0975116 2.45804e-05 0)
(0.0975039 2.17344e-05 0)
(0.0974981 1.94679e-05 0)
(0.0974938 1.79313e-05 0)
(0.0974905 1.72931e-05 0)
(0.0974875 1.7742e-05 0)
(0.0974844 1.94891e-05 0)
(0.0974803 2.27722e-05 0)
(0.0974744 2.78599e-05 0)
(0.0974659 3.5056e-05 0)
(0.0974538 4.47073e-05 0)
(0.0974369 5.72103e-05 0)
(0.0974142 7.30237e-05 0)
(0.0973841 9.26801e-05 0)
(0.0973453 0.000116802 0)
(0.0972961 0.000146124 0)
(0.0972346 0.000181519 0)
(0.0971586 0.000224027 0)
(0.0970659 0.000274907 0)
(0.0969537 0.000335684 0)
(0.096819 0.000408229 0)
(0.0966582 0.000494853 0)
(0.0964674 0.000598435 0)
(0.0962418 0.000722595 0)
(0.0959762 0.00087193 0)
(0.0956642 0.00105233 0)
(0.0952987 0.00127144 0)
(0.0948713 0.00153922 0)
(0.0943726 0.00186887 0)
(0.0937918 0.00227793 0)
(0.0931176 0.00278991 0)
(0.0923383 0.00343636 0)
(0.091444 0.0042594 0)
(0.0904301 0.00531433 0)
(0.0893037 0.00667077 0)
(0.088095 0.00840858 0)
(0.0868751 0.0105999 0)
(0.0857802 0.0132614 0)
(0.0850393 0.0162355 0)
(0.0849399 0.0189272 0)
(0.100003 -7.19503e-06 0)
(0.100013 -6.11696e-06 0)
(0.100018 5.80122e-06 0)
(0.100007 2.82794e-05 0)
(0.0999712 5.7506e-05 0)
(0.0999077 8.75761e-05 0)
(0.0998188 0.000112852 0)
(0.0997115 0.000129937 0)
(0.0995941 0.000138305 0)
(0.0994741 0.000139641 0)
(0.0993567 0.000136598 0)
(0.0992446 0.000131707 0)
(0.0991387 0.000126765 0)
(0.0990384 0.000122714 0)
(0.0989431 0.000119822 0)
(0.0988517 0.000117944 0)
(0.0987635 0.00011677 0)
(0.0986782 0.000115971 0)
(0.0985954 0.000115281 0)
(0.0985151 0.000114511 0)
(0.0984373 0.000113548 0)
(0.0983621 0.000112329 0)
(0.0982895 0.000110823 0)
(0.0982197 0.000109016 0)
(0.0981528 0.000106906 0)
(0.098089 0.000104492 0)
(0.0980281 0.000101774 0)
(0.0979705 9.87523e-05 0)
(0.0979161 9.54287e-05 0)
(0.097865 9.18059e-05 0)
(0.0978172 8.78915e-05 0)
(0.0977729 8.3698e-05 0)
(0.0977319 7.92456e-05 0)
(0.0976944 7.45621e-05 0)
(0.0976603 6.9686e-05 0)
(0.0976295 6.46661e-05 0)
(0.097602 5.95653e-05 0)
(0.0975776 5.44587e-05 0)
(0.0975563 4.94364e-05 0)
(0.0975379 4.46029e-05 0)
(0.097522 4.00798e-05 0)
(0.0975085 3.60058e-05 0)
(0.097497 3.25379e-05 0)
(0.0974871 2.98527e-05 0)
(0.0974783 2.81481e-05 0)
(0.0974703 2.76458e-05 0)
(0.0974624 2.85928e-05 0)
(0.097454 3.12668e-05 0)
(0.0974445 3.59784e-05 0)
(0.0974329 4.30782e-05 0)
(0.0974186 5.29629e-05 0)
(0.0974005 6.60821e-05 0)
(0.0973776 8.29504e-05 0)
(0.0973487 0.00010416 0)
(0.0973127 0.000130396 0)
(0.097268 0.000162458 0)
(0.0972132 0.000201282 0)
(0.0971466 0.000247975 0)
(0.0970663 0.000303852 0)
(0.0969701 0.000370491 0)
(0.0968558 0.00044979 0)
(0.0967206 0.000544059 0)
(0.0965617 0.00065612 0)
(0.0963759 0.00078945 0)
(0.0961594 0.000948364 0)
(0.0959082 0.00113825 0)
(0.095618 0.0013659 0)
(0.095284 0.00163991 0)
(0.0949012 0.0019712 0)
(0.0944647 0.00237379 0)
(0.0939702 0.00286559 0)
(0.0934148 0.0034695 0)
(0.0927987 0.00421451 0)
(0.0921276 0.00513656 0)
(0.0914164 0.00627843 0)
(0.0906956 0.00768688 0)
(0.0900183 0.00940385 0)
(0.089469 0.0114455 0)
(0.0891664 0.0137613 0)
(0.0892484 0.0161633 0)
(0.0897976 0.0182357 0)
(0.100003 -9.19586e-06 0)
(0.100013 -8.16112e-06 0)
(0.100019 6.44999e-06 0)
(0.100011 3.4319e-05 0)
(0.0999791 7.07978e-05 0)
(0.0999204 0.000108575 0)
(0.0998366 0.000140597 0)
(0.099734 0.00016254 0)
(0.0996203 0.000173629 0)
(0.0995029 0.00017586 0)
(0.0993871 0.000172481 0)
(0.0992757 0.000166633 0)
(0.0991699 0.00016058 0)
(0.0990696 0.000155537 0)
(0.0989741 0.000151876 0)
(0.0988826 0.000149456 0)
(0.0987944 0.000147909 0)
(0.0987092 0.000146842 0)
(0.0986267 0.000145927 0)
(0.0985466 0.000144933 0)
(0.0984691 0.000143717 0)
(0.0983942 0.000142197 0)
(0.0983219 0.000140334 0)
(0.0982523 0.000138111 0)
(0.0981856 0.000135521 0)
(0.0981217 0.000132565 0)
(0.0980608 0.000129242 0)
(0.0980029 0.000125554 0)
(0.0979481 0.000121502 0)
(0.0978964 0.000117094 0)
(0.0978479 0.000112338 0)
(0.0978026 0.000107252 0)
(0.0977604 0.000101862 0)
(0.0977214 9.62046e-05 0)
(0.0976856 9.03292e-05 0)
(0.0976528 8.42988e-05 0)
(0.097623 7.81922e-05 0)
(0.0975961 7.21049e-05 0)
(0.0975719 6.61501e-05 0)
(0.0975502 6.04596e-05 0)
(0.0975308 5.51856e-05 0)
(0.0975133 5.05018e-05 0)
(0.0974975 4.66045e-05 0)
(0.097483 4.37142e-05 0)
(0.0974694 4.20773e-05 0)
(0.0974561 4.19697e-05 0)
(0.0974427 4.36981e-05 0)
(0.0974285 4.76063e-05 0)
(0.0974128 5.4079e-05 0)
(0.0973949 6.35482e-05 0)
(0.0973741 7.65007e-05 0)
(0.0973494 9.34878e-05 0)
(0.0973198 0.000115138 0)
(0.0972844 0.00014217 0)
(0.0972419 0.000175414 0)
(0.0971911 0.000215828 0)
(0.0971307 0.000264535 0)
(0.0970591 0.000322847 0)
(0.0969747 0.000392316 0)
(0.0968758 0.000474782 0)
(0.0967604 0.000572443 0)
(0.0966264 0.000687941 0)
(0.0964717 0.000824461 0)
(0.0962938 0.000985872 0)
(0.0960903 0.00117689 0)
(0.0958586 0.0014033 0)
(0.0955963 0.00167219 0)
(0.0953011 0.00199231 0)
(0.0949714 0.00237443 0)
(0.0946066 0.00283181 0)
(0.0942076 0.00338064 0)
(0.0937785 0.00404047 0)
(0.0933277 0.00483436 0)
(0.0928701 0.00578843 0)
(0.0924304 0.00693007 0)
(0.0920459 0.0082836 0)
(0.0917703 0.00986139 0)
(0.0916737 0.0116479 0)
(0.0918362 0.0135745 0)
(0.0923258 0.0154884 0)
(0.0931466 0.0171325 0)
(0.100003 -1.13873e-05 0)
(0.100013 -1.05945e-05 0)
(0.100021 6.56418e-06 0)
(0.100016 3.9773e-05 0)
(0.0999884 8.36109e-05 0)
(0.0999354 0.000129386 0)
(0.0998579 0.000168602 0)
(0.0997611 0.000195935 0)
(0.0996522 0.00021027 0)
(0.0995381 0.000213837 0)
(0.0994243 0.000210438 0)
(0.099314 0.000203818 0)
(0.0992086 0.000196728 0)
(0.0991083 0.000190687 0)
(0.0990128 0.000186208 0)
(0.0989213 0.000183174 0)
(0.0988333 0.000181182 0)
(0.0987484 0.00017978 0)
(0.0986662 0.000178587 0)
(0.0985866 0.000177329 0)
(0.0985096 0.000175831 0)
(0.0984352 0.000173994 0)
(0.0983634 0.000171766 0)
(0.0982943 0.000169125 0)
(0.0982279 0.000166062 0)
(0.0981642 0.000162577 0)
(0.0981034 0.00015867 0)
(0.0980455 0.000154342 0)
(0.0979904 0.000149598 0)
(0.0979383 0.000144447 0)
(0.0978892 0.000138903 0)
(0.097843 0.000132988 0)
(0.0977997 0.000126736 0)
(0.0977593 0.000120193 0)
(0.0977218 0.00011342 0)
(0.097687 0.000106496 0)
(0.0976549 9.95171e-05 0)
(0.0976253 9.25996e-05 0)
(0.0975981 8.5881e-05 0)
(0.097573 7.95213e-05 0)
(0.0975498 7.37046e-05 0)
(0.0975282 6.86401e-05 0)
(0.0975079 6.45641e-05 0)
(0.0974885 6.17413e-05 0)
(0.0974697 6.04671e-05 0)
(0.0974508 6.10709e-05 0)
(0.0974315 6.39195e-05 0)
(0.0974111 6.9421e-05 0)
(0.0973889 7.80321e-05 0)
(0.0973645 9.02632e-05 0)
(0.0973368 0.000106687 0)
(0.0973053 0.000127951 0)
(0.097269 0.000154786 0)
(0.0972269 0.000188028 0)
(0.097178 0.000228632 0)
(0.0971213 0.000277698 0)
(0.0970556 0.000336497 0)
(0.0969797 0.00040651 0)
(0.0968922 0.000489466 0)
(0.0967918 0.000587395 0)
(0.0966771 0.000702692 0)
(0.0965465 0.000838192 0)
(0.0963987 0.000997262 0)
(0.0962322 0.00118391 0)
(0.0960456 0.00140294 0)
(0.0958381 0.00166005 0)
(0.0956089 0.00196209 0)
(0.0953581 0.00231719 0)
(0.095087 0.00273497 0)
(0.0947981 0.00322676 0)
(0.0944966 0.00380561 0)
(0.0941907 0.00448623 0)
(0.0938931 0.0052845 0)
(0.0936224 0.00621638 0)
(0.0934047 0.00729557 0)
(0.0932746 0.0085296 0)
(0.0932755 0.0099132 0)
(0.0934562 0.0114187 0)
(0.0938635 0.0129837 0)
(0.0945247 0.0145011 0)
(0.0954207 0.0158202 0)
(0.100003 -1.37902e-05 0)
(0.100014 -1.34894e-05 0)
(0.100023 5.981e-06 0)
(0.100021 4.43645e-05 0)
(0.0999987 9.55584e-05 0)
(0.0999523 0.000149555 0)
(0.099882 0.000196413 0)
(0.099792 0.000229729 0)
(0.0996887 0.000247939 0)
(0.0995789 0.000253403 0)
(0.0994677 0.00025041 0)
(0.0993589 0.000243287 0)
(0.0992542 0.000235287 0)
(0.0991542 0.000228269 0)
(0.0990588 0.000222924 0)
(0.0989675 0.000219194 0)
(0.0988798 0.000216667 0)
(0.0987953 0.000214849 0)
(0.0987138 0.00021331 0)
(0.0986349 0.000211734 0)
(0.0985587 0.000209918 0)
(0.098485 0.000207739 0)
(0.0984139 0.000205136 0)
(0.0983454 0.000202077 0)
(0.0982796 0.000198551 0)
(0.0982164 0.000194556 0)
(0.0981559 0.000190093 0)
(0.0980981 0.000185165 0)
(0.098043 0.000179778 0)
(0.0979907 0.000173945 0)
(0.097941 0.000167686 0)
(0.0978941 0.000161029 0)
(0.0978498 0.000154017 0)
(0.0978082 0.000146706 0)
(0.097769 0.000139173 0)
(0.0977323 0.00013151 0)
(0.0976979 0.000123832 0)
(0.0976657 0.000116279 0)
(0.0976354 0.000109013 0)
(0.0976068 0.000102221 0)
(0.0975798 9.61219e-05 0)
(0.097554 9.09593e-05 0)
(0.0975291 8.70088e-05 0)
(0.0975048 8.45794e-05 0)
(0.0974805 8.40145e-05 0)
(0.097456 8.56952e-05 0)
(0.0974306 9.00457e-05 0)
(0.0974039 9.75362e-05 0)
(0.0973754 0.00010869 0)
(0.0973442 0.000124089 0)
(0.0973099 0.000144386 0)
(0.0972716 0.00017031 0)
(0.0972287 0.000202685 0)
(0.0971803 0.000242441 0)
(0.0971256 0.000290635 0)
(0.0970637 0.000348474 0)
(0.0969936 0.00041734 0)
(0.0969145 0.000498823 0)
(0.0968253 0.00059476 0)
(0.0967252 0.000707276 0)
(0.0966132 0.000838841 0)
(0.0964885 0.000992328 0)
(0.0963505 0.00117108 0)
(0.0961985 0.00137901 0)
(0.0960325 0.00162063 0)
(0.0958528 0.0019012 0)
(0.0956604 0.00222679 0)
(0.0954571 0.00260433 0)
(0.0952462 0.00304164 0)
(0.0950327 0.00354742 0)
(0.0948237 0.00413099 0)
(0.0946294 0.00480196 0)
(0.0944636 0.00556949 0)
(0.0943444 0.00644103 0)
(0.0942946 0.00742038 0)
(0.0943415 0.00850484 0)
(0.0945159 0.00968124 0)
(0.0948482 0.0109211 0)
(0.0953625 0.0121762 0)
(0.0960664 0.0133766 0)
(0.0969385 0.014436 0)
(0.100003 -1.6423e-05 0)
(0.100014 -1.69115e-05 0)
(0.100025 4.54832e-06 0)
(0.100026 4.78271e-05 0)
(0.10001 0.00010626 0)
(0.0999702 0.000168625 0)
(0.0999078 0.000223551 0)
(0.0998254 0.000263489 0)
(0.0997286 0.000286296 0)
(0.0996236 0.000294332 0)
(0.0995159 0.000292278 0)
(0.0994091 0.00028501 0)
(0.0993055 0.000276285 0)
(0.0992061 0.000268342 0)
(0.0991111 0.000262095 0)
(0.0990203 0.000257586 0)
(0.0989331 0.000254424 0)
(0.0988493 0.000252093 0)
(0.0987686 0.000250125 0)
(0.0986906 0.000248168 0)
(0.0986154 0.000245987 0)
(0.0985427 0.000243439 0)
(0.0984725 0.000240446 0)
(0.0984049 0.00023697 0)
(0.0983399 0.000232995 0)
(0.0982773 0.000228516 0)
(0.0982173 0.000223534 0)
(0.0981599 0.000218056 0)
(0.098105 0.00021209 0)
(0.0980525 0.000205653 0)
(0.0980026 0.000198773 0)
(0.0979551 0.000191485 0)
(0.0979099 0.000183842 0)
(0.0978671 0.000175914 0)
(0.0978264 0.000167788 0)
(0.0977878 0.000159578 0)
(0.0977512 0.000151416 0)
(0.0977163 0.000143464 0)
(0.0976831 0.00013591 0)
(0.0976511 0.000128972 0)
(0.0976203 0.000122897 0)
(0.0975903 0.000117966 0)
(0.0975608 0.000114492 0)
(0.0975315 0.000112826 0)
(0.097502 0.000113357 0)
(0.0974718 0.000116516 0)
(0.0974405 0.000122777 0)
(0.0974077 0.000132669 0)
(0.0973728 0.000146773 0)
(0.0973353 0.000165734 0)
(0.0972946 0.000190271 0)
(0.0972501 0.000221181 0)
(0.0972012 0.000259357 0)
(0.0971471 0.000305801 0)
(0.0970874 0.000361639 0)
(0.0970213 0.000428143 0)
(0.0969481 0.000506753 0)
(0.0968672 0.000599104 0)
(0.0967781 0.000707056 0)
(0.0966803 0.000832727 0)
(0.0965733 0.000978531 0)
(0.096457 0.00114722 0)
(0.0963314 0.00134192 0)
(0.0961968 0.00156619 0)
(0.0960541 0.001824 0)
(0.0959046 0.00211985 0)
(0.0957505 0.00245867 0)
(0.095595 0.00284584 0)
(0.0954425 0.0032871 0)
(0.0952989 0.00378832 0)
(0.0951723 0.00435526 0)
(0.0950727 0.00499303 0)
(0.0950129 0.00570543 0)
(0.095008 0.00649391 0)
(0.0950758 0.00735626 0)
(0.0952358 0.00828485 0)
(0.0955076 0.00926474 0)
(0.0959083 0.0102717 0)
(0.0964488 0.0112713 0)
(0.0971284 0.0122196 0)
(0.0979296 0.0130675 0)
(0.100003 -1.92997e-05 0)
(0.100015 -2.09117e-05 0)
(0.100027 2.14355e-06 0)
(0.100031 4.9937e-05 0)
(0.10002 0.000115383 0)
(0.0999882 0.000186175 0)
(0.0999339 0.000249558 0)
(0.0998596 0.000296773 0)
(0.09977 0.000324962 0)
(0.0996706 0.000336337 0)
(0.0995668 0.000335856 0)
(0.0994627 0.000328883 0)
(0.0993608 0.000319687 0)
(0.0992625 0.000310912 0)
(0.0991683 0.000303748 0)
(0.0990782 0.000298385 0)
(0.0989919 0.000294485 0)
(0.098909 0.000291536 0)
(0.0988293 0.000289048 0)
(0.0987525 0.000286637 0)
(0.0986784 0.000284039 0)
(0.0986068 0.00028109 0)
(0.0985378 0.000277694 0)
(0.0984713 0.000273805 0)
(0.0984072 0.000269399 0)
(0.0983455 0.000264469 0)
(0.0982862 0.000259017 0)
(0.0982292 0.000253052 0)
(0.0981746 0.000246586 0)
(0.0981222 0.000239644 0)
(0.098072 0.000232258 0)
(0.098024 0.000224475 0)
(0.0979781 0.000216358 0)
(0.0979342 0.000207991 0)
(0.0978921 0.000199477 0)
(0.0978517 0.000190945 0)
(0.0978129 0.000182551 0)
(0.0977755 0.000174477 0)
(0.0977393 0.000166938 0)
(0.097704 0.000160178 0)
(0.0976695 0.000154475 0)
(0.0976354 0.000150144 0)
(0.0976014 0.000147534 0)
(0.0975673 0.000147035 0)
(0.0975326 0.000149075 0)
(0.097497 0.000154129 0)
(0.0974601 0.000162718 0)
(0.0974215 0.000175416 0)
(0.0973807 0.000192854 0)
(0.0973373 0.000215728 0)
(0.0972908 0.000244802 0)
(0.0972407 0.000280924 0)
(0.0971866 0.00032503 0)
(0.0971279 0.000378161 0)
(0.0970643 0.000441473 0)
(0.0969952 0.000516256 0)
(0.0969204 0.000603948 0)
(0.0968395 0.000706157 0)
(0.0967524 0.000824679 0)
(0.0966588 0.000961522 0)
(0.096559 0.00111892 0)
(0.0964533 0.00129936 0)
(0.0963424 0.00150557 0)
(0.0962271 0.00174058 0)
(0.0961092 0.00200765 0)
(0.0959907 0.00231027 0)
(0.0958745 0.0026521 0)
(0.0957643 0.00303689 0)
(0.0956652 0.00346829 0)
(0.0955831 0.00394965 0)
(0.0955255 0.0044837 0)
(0.0955014 0.00507214 0)
(0.0955213 0.00571508 0)
(0.0955967 0.00641036 0)
(0.0957403 0.0071528 0)
(0.0959647 0.00793337 0)
(0.0962814 0.00873841 0)
(0.0966991 0.0095492 0)
(0.0972215 0.0103421 0)
(0.0978451 0.0110899 0)
(0.0985569 0.0117647 0)
(0.100003 -2.24264e-05 0)
(0.100015 -2.55181e-05 0)
(0.100029 -1.30938e-06 0)
(0.100036 5.0543e-05 0)
(0.10003 0.000122683 0)
(0.100005 0.000201872 0)
(0.099959 0.000274041 0)
(0.099893 0.00032917 0)
(0.0998108 0.000363554 0)
(0.0997176 0.000379091 0)
(0.0996185 0.000380889 0)
(0.0995176 0.000374731 0)
(0.099418 0.000365379 0)
(0.0993213 0.000355918 0)
(0.0992284 0.000347856 0)
(0.0991394 0.00034158 0)
(0.0990543 0.00033685 0)
(0.0989726 0.000333182 0)
(0.0988941 0.000330082 0)
(0.0988186 0.000327144 0)
(0.0987458 0.000324077 0)
(0.0986756 0.000320695 0)
(0.0986079 0.000316887 0)
(0.0985426 0.000312592 0)
(0.0984795 0.000307782 0)
(0.0984188 0.000302446 0)
(0.0983602 0.000296587 0)
(0.0983038 0.000290214 0)
(0.0982495 0.000283348 0)
(0.0981973 0.000276018 0)
(0.098147 0.000268265 0)
(0.0980985 0.000260149 0)
(0.0980519 0.000251744 0)
(0.0980069 0.000243147 0)
(0.0979634 0.00023448 0)
(0.0979213 0.000225888 0)
(0.0978803 0.000217547 0)
(0.0978404 0.000209664 0)
(0.0978013 0.000202475 0)
(0.0977628 0.000196253 0)
(0.0977247 0.000191302 0)
(0.0976866 0.000187969 0)
(0.0976483 0.000186634 0)
(0.0976096 0.000187719 0)
(0.09757 0.000191688 0)
(0.0975293 0.000199052 0)
(0.0974872 0.000210368 0)
(0.0974432 0.000226246 0)
(0.0973971 0.00024735 0)
(0.0973484 0.000274408 0)
(0.0972968 0.000308214 0)
(0.0972421 0.000349637 0)
(0.0971838 0.000399629 0)
(0.0971216 0.000459231 0)
(0.0970554 0.000529588 0)
(0.0969849 0.000611955 0)
(0.0969101 0.000707709 0)
(0.0968309 0.000818358 0)
(0.0967474 0.000945553 0)
(0.0966601 0.00109109 0)
(0.0965693 0.00125693 0)
(0.0964759 0.00144517 0)
(0.096381 0.00165804 0)
(0.0962861 0.00189791 0)
(0.0961932 0.00216722 0)
(0.0961047 0.00246843 0)
(0.0960239 0.00280392 0)
(0.0959547 0.00317592 0)
(0.0959017 0.00358628 0)
(0.0958706 0.00403632 0)
(0.0958676 0.00452654 0)
(0.0959001 0.00505634 0)
(0.0959758 0.00562365 0)
(0.0961031 0.00622458 0)
(0.0962901 0.00685304 0)
(0.0965444 0.00750045 0)
(0.0968721 0.00815557 0)
(0.097277 0.00880464 0)
(0.0977592 0.00943184 0)
(0.0983148 0.0100203 0)
(0.0989344 0.0105539 0)
(0.100003 -2.58011e-05 0)
(0.100015 -3.07308e-05 0)
(0.10003 -5.82848e-06 0)
(0.10004 4.9586e-05 0)
(0.100038 0.000128034 0)
(0.10002 0.00021551 0)
(0.0999817 0.000296712 0)
(0.0999238 0.000360337 0)
(0.0998492 0.000401704 0)
(0.0997625 0.000422241 0)
(0.0996686 0.000427067 0)
(0.0995717 0.000422298 0)
(0.099475 0.000413169 0)
(0.0993806 0.000403223 0)
(0.0992894 0.000394329 0)
(0.099202 0.000387117 0)
(0.0991183 0.000381487 0)
(0.0990381 0.000377016 0)
(0.0989611 0.000373223 0)
(0.098887 0.000369691 0)
(0.0988157 0.00036611 0)
(0.098747 0.000362273 0)
(0.0986806 0.00035805 0)
(0.0986165 0.00035337 0)
(0.0985546 0.000348196 0)
(0.0984948 0.000342513 0)
(0.098437 0.000336325 0)
(0.0983812 0.000329645 0)
(0.0983272 0.000322498 0)
(0.0982751 0.000314923 0)
(0.0982246 0.00030697 0)
(0.0981757 0.00029871 0)
(0.0981283 0.000290231 0)
(0.0980822 0.000281645 0)
(0.0980373 0.000273091 0)
(0.0979934 0.000264731 0)
(0.0979503 0.000256763 0)
(0.097908 0.000249412 0)
(0.097866 0.000242938 0)
(0.0978244 0.000237636 0)
(0.0977827 0.000233839 0)
(0.0977408 0.000231914 0)
(0.0976984 0.000232271 0)
(0.0976553 0.000235357 0)
(0.0976112 0.000241663 0)
(0.0975658 0.000251726 0)
(0.0975189 0.000266125 0)
(0.0974701 0.000285492 0)
(0.0974193 0.000310509 0)
(0.0973662 0.000341916 0)
(0.0973105 0.000380511 0)
(0.097252 0.000427156 0)
(0.0971907 0.000482786 0)
(0.0971263 0.000548406 0)
(0.0970589 0.000625102 0)
(0.0969884 0.000714046 0)
(0.0969151 0.000816494 0)
(0.0968392 0.000933793 0)
(0.096761 0.00106738 0)
(0.0966814 0.00121876 0)
(0.0966009 0.00138955 0)
(0.0965209 0.00158138 0)
(0.0964426 0.00179593 0)
(0.0963679 0.00203488 0)
(0.0962988 0.00229985 0)
(0.0962381 0.00259231 0)
(0.0961888 0.00291354 0)
(0.0961546 0.00326447 0)
(0.0961395 0.00364557 0)
(0.0961483 0.0040567 0)
(0.0961859 0.00449693 0)
(0.0962577 0.00496432 0)
(0.0963693 0.0054558 0)
(0.0965261 0.00596696 0)
(0.096733 0.00649195 0)
(0.0969942 0.00702346 0)
(0.0973124 0.00755279 0)
(0.0976886 0.0080701 0)
(0.0981217 0.00856487 0)
(0.0986078 0.00902658 0)
(0.0991403 0.00944563 0)
(0.100003 -2.94136e-05 0)
(0.100015 -3.65223e-05 0)
(0.10003 -1.13716e-05 0)
(0.100043 4.71062e-05 0)
(0.100045 0.000131444 0)
(0.100032 0.000227026 0)
(0.100001 0.000317422 0)
(0.0999507 0.000390032 0)
(0.0998836 0.0004391 0)
(0.0998036 0.000465441 0)
(0.0997153 0.000474045 0)
(0.0996229 0.000471275 0)
(0.0995298 0.000462799 0)
(0.0994382 0.000452624 0)
(0.0993493 0.000443018 0)
(0.0992639 0.000434895 0)
(0.099182 0.000428333 0)
(0.0991035 0.000423004 0)
(0.0990281 0.000418461 0)
(0.0989557 0.000414289 0)
(0.0988859 0.000410166 0)
(0.0988187 0.000405865 0)
(0.0987536 0.000401243 0)
(0.0986908 0.000396214 0)
(0.09863 0.000390733 0)
(0.0985711 0.000384784 0)
(0.098514 0.00037837 0)
(0.0984587 0.000371506 0)
(0.098405 0.000364226 0)
(0.0983529 0.000356575 0)
(0.0983021 0.000348616 0)
(0.0982527 0.000340431 0)
(0.0982044 0.000332123 0)
(0.0981571 0.00032382 0)
(0.0981107 0.000315673 0)
(0.098065 0.000307867 0)
(0.0980198 0.000300614 0)
(0.0979749 0.00029416 0)
(0.0979302 0.000288784 0)
(0.0978854 0.0002848 0)
(0.0978403 0.000282562 0)
(0.0977948 0.000282456 0)
(0.0977486 0.000284911 0)
(0.0977014 0.000290392 0)
(0.0976531 0.000299407 0)
(0.0976035 0.000312504 0)
(0.0975524 0.000330273 0)
(0.0974995 0.00035335 0)
(0.0974448 0.000382416 0)
(0.097388 0.000418199 0)
(0.0973291 0.000461475 0)
(0.0972681 0.000513073 0)
(0.0972049 0.000573873 0)
(0.0971395 0.000644808 0)
(0.0970722 0.000726868 0)
(0.0970031 0.00082109 0)
(0.0969327 0.000928564 0)
(0.0968614 0.00105042 0)
(0.0967898 0.00118784 0)
(0.0967188 0.001342 0)
(0.0966494 0.00151411 0)
(0.096583 0.00170533 0)
(0.096521 0.00191679 0)
(0.0964653 0.0021495 0)
(0.0964181 0.00240435 0)
(0.0963817 0.00268197 0)
(0.096359 0.00298273 0)
(0.0963531 0.00330662 0)
(0.0963673 0.00365315 0)
(0.0964054 0.00402125 0)
(0.0964709 0.00440918 0)
(0.0965677 0.00481446 0)
(0.0966993 0.00523373 0)
(0.0968691 0.00566281 0)
(0.0970798 0.0060966 0)
(0.0973333 0.00652926 0)
(0.0976305 0.00695428 0)
(0.0979711 0.00736472 0)
(0.0983533 0.00775358 0)
(0.0987739 0.00811418 0)
(0.0992281 0.00844071 0)
(0.100003 -3.32458e-05 0)
(0.100015 -4.28407e-05 0)
(0.100031 -1.78447e-05 0)
(0.100044 4.3231e-05 0)
(0.10005 0.000133041 0)
(0.100042 0.0002365 0)
(0.100016 0.000336156 0)
(0.099973 0.000418125 0)
(0.0999129 0.000475507 0)
(0.0998396 0.000508376 0)
(0.0997572 0.000521475 0)
(0.0996698 0.000521316 0)
(0.0995808 0.000513957 0)
(0.0994925 0.000503865 0)
(0.0994065 0.000493726 0)
(0.0993234 0.000484775 0)
(0.0992436 0.000477302 0)
(0.0991671 0.000471103 0)
(0.0990936 0.000465788 0)
(0.0990228 0.00046096 0)
(0.0989547 0.000456291 0)
(0.0988888 0.000451545 0)
(0.0988252 0.000446561 0)
(0.0987635 0.000441244 0)
(0.0987037 0.000435541 0)
(0.0986456 0.000429432 0)
(0.0985892 0.000422919 0)
(0.0985342 0.000416025 0)
(0.0984806 0.000408788 0)
(0.0984283 0.000401263 0)
(0.0983772 0.000393523 0)
(0.098327 0.000385664 0)
(0.0982777 0.000377802 0)
(0.0982291 0.000370079 0)
(0.0981811 0.000362663 0)
(0.0981334 0.000355753 0)
(0.098086 0.000349578 0)
(0.0980387 0.000344398 0)
(0.0979912 0.00034051 0)
(0.0979433 0.000338243 0)
(0.097895 0.000337961 0)
(0.097846 0.000340066 0)
(0.0977962 0.000344994 0)
(0.0977454 0.000353221 0)
(0.0976934 0.000365256 0)
(0.09764 0.000381648 0)
(0.0975853 0.000402979 0)
(0.097529 0.000429873 0)
(0.0974712 0.000462987 0)
(0.0974117 0.000503014 0)
(0.0973507 0.000550685 0)
(0.0972881 0.000606763 0)
(0.0972241 0.000672047 0)
(0.097159 0.000747363 0)
(0.097093 0.000833564 0)
(0.0970265 0.000931526 0)
(0.0969601 0.00104213 0)
(0.0968943 0.00116628 0)
(0.0968301 0.00130484 0)
(0.0967683 0.00145866 0)
(0.0967101 0.00162855 0)
(0.0966568 0.00181522 0)
(0.09661 0.00201928 0)
(0.0965714 0.00224119 0)
(0.096543 0.00248119 0)
(0.0965268 0.00273931 0)
(0.0965254 0.00301524 0)
(0.0965411 0.00330833 0)
(0.0965766 0.00361751 0)
(0.0966344 0.00394123 0)
(0.0967172 0.00427745 0)
(0.0968275 0.00462356 0)
(0.0969674 0.00497642 0)
(0.0971386 0.00533236 0)
(0.0973426 0.00568724 0)
(0.09758 0.00603652 0)
(0.0978506 0.00637545 0)
(0.0981536 0.00669918 0)
(0.0984871 0.007003 0)
(0.0988485 0.0072826 0)
(0.0992343 0.00753437 0)
(0.100003 -3.72747e-05 0)
(0.100014 -4.9618e-05 0)
(0.10003 -2.51186e-05 0)
(0.100045 3.81505e-05 0)
(0.100053 0.000133042 0)
(0.100048 0.000244127 0)
(0.100028 0.000353024 0)
(0.0999904 0.000444605 0)
(0.0999368 0.000510781 0)