/*--------------------------------*- C++ -*----------------------------------*\
| =========                 |                                                 |
| \\      /  F ield         | OpenFOAM: The Open Source CFD Toolbox           |
|  \\    /   O peration     | Version:  4.1                                   |
|   \\  /    A nd           | Web:      www.OpenFOAM.org                      |
|    \\/     M anipulation  |                                                 |
\*---------------------------------------------------------------------------*/
FoamFile
{
    version     2.0;
    format      ascii;
    class       surfaceScalarField;
    location    "0.6";
    object      phi;
}
// * * * * * * * * * * * * * * * * * * * * * * * * * * * * * * * * * * * * * //

dimensions      [1 0 -1 0 0 0 0];

internalField   nonuniform List<scalar> 
23692
(
9.30663e-05
1.32666e-08
9.30255e-05
4.08115e-08
9.29443e-05
8.1165e-08
9.282e-05
1.24271e-07
9.26615e-05
1.58549e-07
9.24841e-05
1.77371e-07
9.23029e-05
1.81243e-07
9.21275e-05
1.75373e-07
9.19617e-05
1.65822e-07
9.18048e-05
1.56957e-07
9.1654e-05
1.50772e-07
9.15065e-05
1.4749e-07
9.13601e-05
1.46444e-07
9.12133e-05
1.46762e-07
9.10656e-05
1.47735e-07
9.09167e-05
1.48912e-07
9.07666e-05
1.50062e-07
9.06155e-05
1.51101e-07
9.04635e-05
1.52029e-07
9.03106e-05
1.52881e-07
9.01569e-05
1.53704e-07
9.00024e-05
1.54541e-07
8.9847e-05
1.55428e-07
8.96906e-05
1.56395e-07
8.95331e-05
1.57468e-07
8.93745e-05
1.58661e-07
8.92145e-05
1.59988e-07
8.9053e-05
1.61456e-07
8.88899e-05
1.63076e-07
8.87251e-05
1.64845e-07
8.85583e-05
1.66765e-07
8.83895e-05
1.68835e-07
8.82185e-05
1.7105e-07
8.80451e-05
1.73408e-07
8.78692e-05
1.75909e-07
8.76906e-05
1.78545e-07
8.75093e-05
1.81321e-07
8.73251e-05
1.84235e-07
8.71378e-05
1.87294e-07
8.69473e-05
1.90503e-07
8.67534e-05
1.93873e-07
8.6556e-05
1.97419e-07
8.63548e-05
2.01156e-07
8.61497e-05
2.05108e-07
8.59404e-05
2.093e-07
8.57267e-05
2.13764e-07
8.55081e-05
2.18538e-07
8.52845e-05
2.23663e-07
8.50553e-05
2.2919e-07
8.48201e-05
2.35178e-07
8.45784e-05
2.41697e-07
8.43296e-05
2.48826e-07
8.40729e-05
2.5666e-07
8.38076e-05
2.65308e-07
8.35327e-05
2.74901e-07
8.32471e-05
2.85596e-07
8.29496e-05
2.97575e-07
8.26385e-05
3.1106e-07
8.23122e-05
3.26322e-07
8.19685e-05
3.43686e-07
8.16049e-05
3.63553e-07
8.12185e-05
3.86424e-07
8.08056e-05
4.1292e-07
8.03618e-05
4.43831e-07
7.98816e-05
4.80167e-07
7.93584e-05
5.23238e-07
7.87836e-05
5.74764e-07
7.81466e-05
6.37036e-07
7.74334e-05
7.13156e-07
7.6626e-05
8.07391e-07
7.57003e-05
9.25713e-07
7.46237e-05
1.07663e-06
7.33512e-05
1.27246e-06
7.18199e-05
1.53139e-06
6.99392e-05
1.88068e-06
6.75774e-05
2.36177e-06
6.45394e-05
3.03797e-06
6.05323e-05
4.00714e-06
5.51008e-05
5.43147e-06
4.74904e-05
7.61044e-06
1.13385e-05
3.61519e-05
9.95858e-05
2.68386e-08
9.95429e-05
8.37098e-08
9.94571e-05
1.66968e-07
9.93253e-05
2.56066e-07
9.91567e-05
3.27095e-07
9.89678e-05
3.66291e-07
9.87745e-05
3.746e-07
9.85871e-05
3.62713e-07
9.84098e-05
3.43135e-07
9.82419e-05
3.24877e-07
9.80806e-05
3.12102e-07
9.79228e-05
3.05289e-07
9.77662e-05
3.03071e-07
9.76093e-05
3.0367e-07
9.74514e-05
3.05635e-07
9.72923e-05
3.08026e-07
9.7132e-05
3.10371e-07
9.69706e-05
3.12499e-07
9.68082e-05
3.14404e-07
9.66449e-05
3.1616e-07
9.64808e-05
3.17858e-07
9.63157e-05
3.19588e-07
9.61498e-05
3.21425e-07
9.59827e-05
3.2343e-07
9.58145e-05
3.25649e-07
9.56451e-05
3.2812e-07
9.54742e-05
3.30869e-07
9.53018e-05
3.33914e-07
9.51276e-05
3.37264e-07
9.49515e-05
3.40925e-07
9.47734e-05
3.44897e-07
9.4593e-05
3.49178e-07
9.44103e-05
3.53759e-07
9.42251e-05
3.58635e-07
9.40372e-05
3.63797e-07
9.38465e-05
3.69246e-07
9.36529e-05
3.74978e-07
9.34561e-05
3.80998e-07
9.32561e-05
3.87313e-07
9.30527e-05
3.93937e-07
9.28456e-05
4.00892e-07
9.26349e-05
4.08208e-07
9.24201e-05
4.15919e-07
9.22011e-05
4.2407e-07
9.19777e-05
4.32716e-07
9.17496e-05
4.41919e-07
9.15164e-05
4.51755e-07
9.12777e-05
4.62315e-07
9.10332e-05
4.73699e-07
9.07824e-05
4.86029e-07
9.05246e-05
4.99446e-07
9.02593e-05
5.14112e-07
8.99858e-05
5.3022e-07
8.97031e-05
5.47994e-07
8.94103e-05
5.67701e-07
8.91062e-05
5.89653e-07
8.87896e-05
6.14226e-07
8.84588e-05
6.41868e-07
8.8112e-05
6.7312e-07
8.7747e-05
7.08641e-07
8.73613e-05
7.49237e-07
8.69519e-05
7.95903e-07
8.65149e-05
8.49881e-07
8.6046e-05
9.12737e-07
8.55397e-05
9.86459e-07
8.49893e-05
1.07361e-06
8.43866e-05
1.17754e-06
8.3721e-05
1.30265e-06
8.29793e-05
1.45484e-06
8.21445e-05
1.64213e-06
8.11947e-05
1.87554e-06
8.01009e-05
2.17041e-06
7.8825e-05
2.54843e-06
7.7316e-05
3.04038e-06
7.55064e-05
3.69024e-06
7.33079e-05
4.56029e-06
7.06098e-05
5.73605e-06
6.72892e-05
7.32774e-06
6.32565e-05
9.46416e-06
5.8641e-05
1.2226e-05
1.52042e-05
5.47753e-05
0.000106562
4.05809e-08
0.000106518
1.28176e-07
0.000106428
2.56433e-07
0.00010629
3.94176e-07
0.000106113
5.04523e-07
0.000105913
5.66027e-07
0.000105708
5.79864e-07
0.000105508
5.62307e-07
0.000105319
5.32559e-07
0.000105139
5.04556e-07
0.000104966
4.84808e-07
0.000104797
4.74145e-07
0.00010463
4.70538e-07
0.000104462
4.71292e-07
0.000104294
4.74175e-07
0.000104124
4.77757e-07
0.000103953
4.813e-07
0.000103781
4.84535e-07
0.000103608
4.87452e-07
0.000103434
4.90153e-07
0.000103259
4.92779e-07
0.000103083
4.95463e-07
0.000102906
4.9832e-07
0.000102728
5.0144e-07
0.000102549
5.04897e-07
0.000102369
5.08743e-07
0.000102186
5.13018e-07
0.000102003
5.1775e-07
0.000101817
5.22955e-07
0.000101629
5.28641e-07
0.000101439
5.34804e-07
0.000101247
5.41441e-07
0.000101052
5.48541e-07
0.000100855
5.56093e-07
0.000100654
5.64089e-07
0.000100451
5.72523e-07
0.000100245
5.81392e-07
0.000100035
5.90703e-07
9.98219e-05
6.00467e-07
9.96052e-05
6.10706e-07
9.93846e-05
6.21457e-07
9.91601e-05
6.32757e-07
9.89313e-05
6.44664e-07
9.86981e-05
6.57247e-07
9.84603e-05
6.70587e-07
9.82174e-05
6.84784e-07
9.79692e-05
6.99951e-07
9.77153e-05
7.16224e-07
9.74553e-05
7.3376e-07
9.71885e-05
7.52743e-07
9.69146e-05
7.73385e-07
9.66328e-05
7.95935e-07
9.63423e-05
8.20683e-07
9.60424e-05
8.47969e-07
9.57319e-05
8.78195e-07
9.54097e-05
9.11831e-07
9.50745e-05
9.49441e-07
9.47246e-05
9.91696e-07
9.43584e-05
1.0394e-06
9.39735e-05
1.09354e-06
9.35674e-05
1.15529e-06
9.31372e-05
1.22612e-06
9.26793e-05
1.30785e-06
9.21893e-05
1.40274e-06
9.16621e-05
1.51364e-06
9.10915e-05
1.64422e-06
9.04699e-05
1.79914e-06
8.9788e-05
1.98453e-06
8.90344e-05
2.20839e-06
8.81952e-05
2.48139e-06
8.72529e-05
2.8178e-06
8.61865e-05
3.23686e-06
8.49703e-05
3.7646e-06
8.35746e-05
4.43604e-06
8.19673e-05
5.29762e-06
8.0119e-05
6.40853e-06
7.80172e-05
7.83785e-06
7.56945e-05
9.6505e-06
7.32911e-05
1.18675e-05
7.11678e-05
1.43493e-05
1.64825e-05
6.98895e-05
0.000114027
5.43353e-08
0.000113982
1.73475e-07
0.00011389
3.4824e-07
0.000113747
5.36919e-07
0.000113563
6.89197e-07
0.000113353
7.75401e-07
0.000113137
7.96523e-07
0.000112925
7.74275e-07
0.000112723
7.34672e-07
0.00011253
6.968e-07
0.000112345
6.69742e-07
0.000112165
6.54848e-07
0.000111986
6.49516e-07
0.000111807
6.50161e-07
0.000111627
6.53788e-07
0.000111447
6.58453e-07
0.000111265
6.63141e-07
0.000111082
6.67467e-07
0.000110898
6.71405e-07
0.000110713
6.75088e-07
0.000110527
6.78693e-07
0.00011034
6.82395e-07
0.000110152
6.86348e-07
0.000109963
6.90674e-07
0.000109772
6.95465e-07
0.00010958
7.00794e-07
0.000109387
7.06715e-07
0.000109191
7.13261e-07
0.000108994
7.20454e-07
0.000108794
7.28301e-07
0.000108592
7.36801e-07
0.000108387
7.45945e-07
0.00010818
7.55721e-07
0.00010797
7.66112e-07
0.000107757
7.77107e-07
0.000107541
7.88694e-07
0.000107322
8.00875e-07
0.000107099
8.13654e-07
0.000106872
8.2705e-07
0.000106642
8.41094e-07
0.000106407
8.55827e-07
0.000106169
8.71309e-07
0.000105926
8.87615e-07
0.000105678
9.04837e-07
0.000105426
9.23086e-07
0.000105168
9.42493e-07
0.000104905
9.63216e-07
0.000104636
9.85434e-07
0.00010436
1.00936e-06
0.000104077
1.03524e-06
0.000103787
1.06335e-06
0.000103489
1.09404e-06
0.000103182
1.12768e-06
0.000102866
1.16473e-06
0.000102538
1.20571e-06
0.000102199
1.25126e-06
0.000101846
1.3021e-06
0.000101479
1.35912e-06
0.000101095
1.42337e-06
0.000100692
1.4961e-06
0.000100269
1.57885e-06
9.98212e-05
1.67347e-06
9.93468e-05
1.78227e-06
9.88414e-05
1.90806e-06
9.83007e-05
2.05438e-06
9.77193e-05
2.22565e-06
9.70909e-05
2.42748e-06
9.64085e-05
2.667e-06
9.56635e-05
2.95339e-06
9.48464e-05
3.29845e-06
9.39468e-05
3.71745e-06
9.29536e-05
4.23006e-06
9.18567e-05
4.86148e-06
9.06495e-05
5.64326e-06
8.93338e-05
6.6133e-06
8.7929e-05
7.81336e-06
8.64861e-05
9.28067e-06
8.51088e-05
1.10278e-05
8.39751e-05
1.30012e-05
8.33229e-05
1.50014e-05
1.65621e-05
8.32434e-05
0.000122015
6.78873e-08
0.00012197
2.18729e-07
0.000121878
4.40756e-07
0.000121732
6.82128e-07
0.000121543
8.78956e-07
0.000121325
9.92759e-07
0.000121098
1.0237e-06
0.000120874
9.98508e-07
0.000120659
9.49933e-07
0.000120453
9.02374e-07
0.000120255
8.67753e-07
0.000120062
8.48182e-07
0.000119871
8.40654e-07
0.00011968
8.40786e-07
0.000119489
8.44855e-07
0.000119297
8.50393e-07
0.000119104
8.56096e-07
0.00011891
8.61451e-07
0.000118715
8.66396e-07
0.000118519
8.71077e-07
0.000118322
8.75707e-07
0.000118124
8.805e-07
0.000117925
8.85636e-07
0.000117724
8.91267e-07
0.000117522
8.97506e-07
0.000117319
9.04443e-07
0.000117113
9.12137e-07
0.000116906
9.20635e-07
0.000116696
9.29958e-07
0.000116484
9.40116e-07
0.00011627
9.51105e-07
0.000116053
9.6291e-07
0.000115833
9.75516e-07
0.000115611
9.88903e-07
0.000115385
1.00305e-06
0.000115155
1.01796e-06
0.000114923
1.03361e-06
0.000114686
1.05002e-06
0.000114446
1.06721e-06
0.000114202
1.08522e-06
0.000113954
1.1041e-06
0.000113701
1.12393e-06
0.000113444
1.14481e-06
0.000113182
1.16683e-06
0.000112915
1.19016e-06
0.000112642
1.21494e-06
0.000112364
1.24139e-06
0.00011208
1.26971e-06
0.000111789
1.30018e-06
0.000111491
1.3331e-06
0.000111186
1.36883e-06
0.000110872
1.40776e-06
0.000110549
1.45039e-06
0.000110217
1.49726e-06
0.000109874
1.54902e-06
0.000109518
1.60643e-06
0.00010915
1.67037e-06
0.000108767
1.74191e-06
0.000108368
1.82228e-06
0.000107952
1.913e-06
0.000107515
2.01584e-06
0.000107055
2.13296e-06
0.00010657
2.26699e-06
0.000106057
2.42112e-06
0.000105512
2.59927e-06
0.000104932
2.80624e-06
0.000104311
3.04801e-06
0.000103646
3.33198e-06
0.000102932
3.66733e-06
0.000102165
4.06548e-06
0.000101342
4.54051e-06
0.000100463
5.1096e-06
9.9531e-05
5.79321e-06
9.85596e-05
6.61469e-06
9.75743e-05
7.59854e-06
9.66217e-05
8.76598e-06
9.57768e-05
1.01256e-05
9.51484e-05
1.16562e-05
9.4871e-05
1.32787e-05
9.50539e-05
1.48185e-05
1.59763e-05
9.56397e-05
0.000130563
8.09852e-08
0.000130519
2.62968e-07
0.000130428
5.32128e-07
0.000130283
8.27312e-07
0.00013009
1.07122e-06
0.000129867
1.21601e-06
0.000129631
1.26013e-06
0.000129395
1.23462e-06
0.000129166
1.17862e-06
0.000128946
1.12193e-06
0.000128735
1.07961e-06
0.000128528
1.05487e-06
0.000128324
1.04454e-06
0.000128121
1.04361e-06
0.000127918
1.04767e-06
0.000127715
1.05377e-06
0.000127511
1.06027e-06
0.000127306
1.06654e-06
0.0001271
1.07244e-06
0.000126893
1.07813e-06
0.000126685
1.08383e-06
0.000126475
1.08978e-06
0.000126265
1.0962e-06
0.000126053
1.10324e-06
0.000125839
1.11106e-06
0.000125624
1.11974e-06
0.000125407
1.12935e-06
0.000125187
1.13995e-06
0.000124966
1.15155e-06
0.000124742
1.16417e-06
0.000124515
1.1778e-06
0.000124286
1.19242e-06
0.000124053
1.20801e-06
0.000123817
1.22454e-06
0.000123578
1.242e-06
0.000123336
1.26036e-06
0.00012309
1.27962e-06
0.00012284
1.2998e-06
0.000122587
1.32093e-06
0.000122329
1.34303e-06
0.000122067
1.36619e-06
0.0001218
1.39049e-06
0.000121529
1.41605e-06
0.000121253
1.44299e-06
0.000120971
1.4715e-06
0.000120685
1.50175e-06
0.000120392
1.53399e-06
0.000120093
1.56849e-06
0.000119788
1.60555e-06
0.000119475
1.64553e-06
0.000119155
1.68884e-06
0.000118827
1.73597e-06
0.00011849
1.78747e-06
0.000118143
1.84397e-06
0.000117786
1.90622e-06
0.000117418
1.97509e-06
0.000117036
2.05159e-06
0.000116641
2.13689e-06
0.000116231
2.2324e-06
0.000115805
2.33975e-06
0.000115359
2.46091e-06
0.000114894
2.59818e-06
0.000114407
2.75433e-06
0.000113895
2.93267e-06
0.000113357
3.13718e-06
0.000112791
3.37263e-06
0.000112194
3.64476e-06
0.000111566
3.96043e-06
0.000110905
4.32788e-06
0.000110214
4.75679e-06
0.000109496
5.25849e-06
0.00010876
5.84581e-06
0.00010802
6.53263e-06
0.000107302
7.33277e-06
0.000106643
8.25762e-06
0.000106098
9.31175e-06
0.000105738
1.04856e-05
0.00010565
1.17442e-05
0.000105915
1.3013e-05
0.000106569
1.4165e-05
1.50226e-05
0.000107523
0.00013971
9.33768e-08
0.000139668
3.05218e-07
0.00013958
6.20461e-07
0.000139437
9.69832e-07
0.000139245
1.26315e-06
0.000139019
1.44274e-06
0.000138775
1.50423e-06
0.000138527
1.48188e-06
0.000138285
1.4207e-06
0.000138051
1.35587e-06
0.000137825
1.3059e-06
0.000137604
1.2755e-06
0.000137387
1.26167e-06
0.000137172
1.25897e-06
0.000136957
1.26245e-06
0.000136742
1.26866e-06
0.000136527
1.27568e-06
0.000136311
1.28268e-06
0.000136094
1.28946e-06
0.000135876
1.29614e-06
0.000135657
1.30294e-06
0.000135436
1.31013e-06
0.000135215
1.31793e-06
0.000134991
1.32652e-06
0.000134766
1.33604e-06
0.000134539
1.34661e-06
0.00013431
1.3583e-06
0.000134079
1.37116e-06
0.000133846
1.3852e-06
0.000133609
1.40044e-06
0.00013337
1.41686e-06
0.000133128
1.43444e-06
0.000132883
1.45315e-06
0.000132635
1.47296e-06
0.000132383
1.49384e-06
0.000132128
1.51578e-06
0.000131868
1.53877e-06
0.000131605
1.56283e-06
0.000131338
1.58797e-06
0.000131067
1.61427e-06
0.000130791
1.64178e-06
0.000130511
1.67061e-06
0.000130227
1.7009e-06
0.000129937
1.7328e-06
0.000129642
1.7665e-06
0.000129341
1.80222e-06
0.000129035
1.84022e-06
0.000128723
1.88082e-06
0.000128404
1.92436e-06
0.000128078
1.97125e-06
0.000127745
2.02194e-06
0.000127404
2.07698e-06
0.000127055
2.13696e-06
0.000126696
2.2026e-06
0.000126327
2.27471e-06
0.000125948
2.35422e-06
0.000125558
2.44222e-06
0.000125155
2.53996e-06
0.000124738
2.6489e-06
0.000124307
2.77075e-06
0.000123861
2.90748e-06
0.000123397
3.06141e-06
0.000122916
3.23525e-06
0.000122417
3.43217e-06
0.000121898
3.65587e-06
0.00012136
3.91066e-06
0.000120803
4.20152e-06
0.00012023
4.53418e-06
0.000119642
4.91513e-06
0.000119048
5.35158e-06
0.000118455
5.8513e-06
0.000117878
6.42219e-06
0.00011734
7.07158e-06
0.000116867
7.80489e-06
0.000116501
8.62356e-06
0.000116291
9.52172e-06
0.000116295
1.04816e-05
0.000116572
1.1468e-05
0.000117162
1.24222e-05
0.000118067
1.32607e-05
1.38825e-05
0.000119207
0.000149498
1.04856e-07
0.000149459
3.44634e-07
0.000149375
7.04033e-07
0.000149238
1.10719e-06
0.000149049
1.45195e-06
0.000148821
1.6704e-06
0.000148572
1.75408e-06
0.000148314
1.73918e-06
0.000148059
1.67577e-06
0.000147811
1.60428e-06
0.00014757
1.54695e-06
0.000147335
1.51043e-06
0.000147104
1.49234e-06
0.000146876
1.48708e-06
0.000146649
1.48927e-06
0.000146423
1.49507e-06
0.000146196
1.50224e-06
0.000145969
1.50974e-06
0.000145742
1.51728e-06
0.000145513
1.52491e-06
0.000145283
1.53285e-06
0.000145052
1.54135e-06
0.000144819
1.55063e-06
0.000144585
1.5609e-06
0.000144348
1.57228e-06
0.00014411
1.5849e-06
0.00014387
1.59883e-06
0.000143627
1.6141e-06
0.000143381
1.63074e-06
0.000143133
1.64875e-06
0.000142882
1.66811e-06
0.000142627
1.68878e-06
0.00014237
1.71073e-06
0.000142109
1.73393e-06
0.000141844
1.75834e-06
0.000141576
1.78395e-06
0.000141304
1.81073e-06
0.000141028
1.83871e-06
0.000140748
1.86793e-06
0.000140464
1.89843e-06
0.000140176
1.9303e-06
0.000139883
1.96366e-06
0.000139585
1.99864e-06
0.000139282
2.03543e-06
0.000138974
2.07422e-06
0.000138661
2.11528e-06
0.000138343
2.15888e-06
0.000138018
2.20536e-06
0.000137687
2.2551e-06
0.00013735
2.30853e-06
0.000137006
2.36614e-06
0.000136654
2.42852e-06
0.000136295
2.4963e-06
0.000135927
2.57022e-06
0.000135551
2.65112e-06
0.000135165
2.73997e-06
0.00013477
2.83787e-06
0.000134364
2.94606e-06
0.000133946
3.066e-06
0.000133518
3.19933e-06
0.000133077
3.34794e-06
0.000132625
3.51396e-06
0.00013216
3.69987e-06
0.000131684
3.90844e-06
0.000131197
4.1428e-06
0.000130701
4.40647e-06
0.0001302
4.70331e-06
0.000129696
5.03752e-06
0.000129198
5.41352e-06
0.000128714
5.83578e-06
0.000128256
6.30849e-06
0.000127843
6.83512e-06
0.000127497
7.41762e-06
0.000127247
8.05542e-06
0.000127127
8.74384e-06
0.000127176
9.47221e-06
0.000127436
1.02215e-05
0.000127942
1.09621e-05
0.000128712
1.16525e-05
0.000129732
1.22407e-05
1.26711e-05
0.000130943
0.000159972
1.15298e-07
0.000159936
3.80617e-07
0.000159858
7.81531e-07
0.000159728
1.23735e-06
0.000159545
1.63513e-06
0.000159319
1.89651e-06
0.000159065
2.00762e-06
0.000158799
2.00506e-06
0.000158532
1.94298e-06
0.00015827
1.86676e-06
0.000158014
1.80265e-06
0.000157765
1.75972e-06
0.000157521
1.73663e-06
0.00015728
1.72795e-06
0.000157041
1.7281e-06
0.000156803
1.73288e-06
0.000156565
1.73977e-06
0.000156328
1.7475e-06
0.000156089
1.75564e-06
0.00015585
1.76418e-06
0.00015561
1.77327e-06
0.000155368
1.78316e-06
0.000155124
1.79404e-06
0.000154879
1.80612e-06
0.000154632
1.81952e-06
0.000154383
1.83434e-06
0.000154131
1.85066e-06
0.000153876
1.86851e-06
0.000153619
1.8879e-06
0.000153359
1.90882e-06
0.000153096
1.93124e-06
0.00015283
1.95512e-06
0.00015256
1.98041e-06
0.000152287
2.00707e-06
0.00015201
2.03507e-06
0.00015173
2.06437e-06
0.000151446
2.09497e-06
0.000151157
2.12687e-06
0.000150865
2.16013e-06
0.000150569
2.19478e-06
0.000150268
2.23093e-06
0.000149963
2.2687e-06
0.000149654
2.30824e-06
0.000149339
2.34973e-06
0.00014902
2.3934e-06
0.000148696
2.43951e-06
0.000148366
2.48836e-06
0.000148032
2.5403e-06
0.000147691
2.59572e-06
0.000147344
2.65508e-06
0.000146992
2.71889e-06
0.000146632
2.78773e-06
0.000146266
2.86224e-06
0.000145893
2.94317e-06
0.000145513
3.03134e-06
0.000145126
3.1277e-06
0.00014473
3.23329e-06
0.000144327
3.3493e-06
0.000143916
3.47706e-06
0.000143497
3.61806e-06
0.000143071
3.77395e-06
0.000142638
3.94658e-06
0.0001422
4.13797e-06
0.000141759
4.35033e-06
0.000141315
4.58604e-06
0.000140874
4.84761e-06
0.00014044
5.13763e-06
0.000140019
5.45863e-06
0.000139619
5.81298e-06
0.000139252
6.20263e-06
0.000138932
6.62881e-06
0.000138676
7.09155e-06
0.000138504
7.58919e-06
0.000138442
8.11761e-06
0.000138516
8.66938e-06
0.000138756
9.23287e-06
0.000139186
9.79132e-06
0.000139826
1.03224e-05
0.00014068
1.07985e-05
0.000141732
1.11886e-05
1.14624e-05
0.00014294
0.000171179
1.24698e-07
0.000171146
4.1292e-07
0.000171076
8.5223e-07
0.000170954
1.35895e-06
0.000170778
1.81079e-06
0.000170556
2.1189e-06
0.000170301
2.26274e-06
0.000170028
2.27774e-06
0.00016975
2.22098e-06
0.000169475
2.14241e-06
0.000169205
2.07245e-06
0.000168942
2.02303e-06
0.000168684
1.99431e-06
0.00016843
1.98143e-06
0.00016818
1.97876e-06
0.000167931
1.9819e-06
0.000167683
1.98804e-06
0.000167434
1.9957e-06
0.000167186
2.00428e-06
0.000166936
2.01365e-06
0.000166686
2.02391e-06
0.000166434
2.03524e-06
0.00016618
2.04784e-06
0.000165924
2.06185e-06
0.000165666
2.07741e-06
0.000165406
2.09459e-06
0.000165143
2.11346e-06
0.000164878
2.13403e-06
0.000164609
2.1563e-06
0.000164338
2.18025e-06
0.000164063
2.20583e-06
0.000163785
2.23299e-06
0.000163504
2.26167e-06
0.000163219
2.29182e-06
0.000162931
2.32341e-06
0.000162639
2.35638e-06
0.000162343
2.39074e-06
0.000162044
2.42649e-06
0.00016174
2.46367e-06
0.000161433
2.50234e-06
0.000161121
2.54258e-06
0.000160805
2.58453e-06
0.000160485
2.62834e-06
0.00016016
2.67421e-06
0.000159832
2.72236e-06
0.000159498
2.77306e-06
0.00015916
2.82661e-06
0.000158817
2.88336e-06
0.000158469
2.94371e-06
0.000158116
3.00812e-06
0.000157757
3.07707e-06
0.000157394
3.15113e-06
0.000157025
3.23092e-06
0.000156651
3.31715e-06
0.000156272
3.41058e-06
0.000155888
3.51208e-06
0.000155499
3.62258e-06
0.000155105
3.74313e-06
0.000154707
3.87487e-06
0.000154306
4.01902e-06
0.000153903
4.17692e-06
0.0001535
4.34999e-06
0.000153098
4.53972e-06
0.000152701
4.74763e-06
0.000152311
4.97526e-06
0.000151935
5.22407e-06
0.000151577
5.49539e-06
0.000151246
5.79023e-06
0.000150949
6.10923e-06
0.0001507
6.45233e-06
0.00015051
6.81861e-06
0.000150395
7.20596e-06
0.000150374
7.6107e-06
0.000150464
8.02723e-06
0.000150686
8.44768e-06
0.000151057
8.86157e-06
0.000151593
9.25569e-06
0.000152301
9.61432e-06
0.000153179
9.91992e-06
0.000154214
1.01545e-05
1.03018e-05
0.000155374
0.000183171
1.33175e-07
0.000183142
4.41677e-07
0.000183078
9.16091e-07
0.000182965
1.47152e-06
0.000182798
1.97786e-06
0.000182581
2.33593e-06
0.000182327
2.51748e-06
0.000182049
2.55523e-06
0.000181762
2.50803e-06
0.000181475
2.42984e-06
0.000181192
2.35531e-06
0.000180915
2.29961e-06
0.000180645
2.26487e-06
0.000180379
2.2471e-06
0.000180117
2.24093e-06
0.000179857
2.24183e-06
0.000179598
2.24677e-06
0.00017934
2.25405e-06
0.000179081
2.26288e-06
0.000178822
2.27301e-06
0.000178561
2.28443e-06
0.000178299
2.29727e-06
0.000178036
2.31166e-06
0.00017777
2.32773e-06
0.000177502
2.34557e-06
0.000177231
2.36525e-06
0.000176958
2.3868e-06
0.000176681
2.41021e-06
0.000176402
2.43546e-06
0.00017612
2.46251e-06
0.000175835
2.4913e-06
0.000175546
2.52177e-06
0.000175254
2.55384e-06
0.000174958
2.58746e-06
0.000174659
2.62256e-06
0.000174356
2.65912e-06
0.00017405
2.6971e-06
0.00017374
2.73652e-06
0.000173426
2.77741e-06
0.000173109
2.81982e-06
0.000172787
2.86385e-06
0.000172462
2.90961e-06
0.000172133
2.95728e-06
0.0001718
3.00702e-06
0.000171464
3.05906e-06
0.000171123
3.11368e-06
0.000170779
3.17115e-06
0.00017043
3.23182e-06
0.000170078
3.29606e-06
0.000169722
3.3643e-06
0.000169362
3.437e-06
0.000168998
3.51468e-06
0.000168631
3.5979e-06
0.000168261
3.68727e-06
0.000167888
3.78348e-06
0.000167513
3.88725e-06
0.000167136
3.99936e-06
0.000166759
4.12065e-06
0.000166382
4.25198e-06
0.000166006
4.39429e-06
0.000165635
4.5485e-06
0.000165269
4.71556e-06
0.000164913
4.89636e-06
0.000164568
5.09175e-06
0.000164241
5.30243e-06
0.000163936
5.52892e-06
0.00016366
5.77144e-06
0.000163421
6.02983e-06
0.000163227
6.30339e-06
0.000163088
6.59076e-06
0.000163017
6.88975e-06
0.000163026
7.19715e-06
0.000163128
7.5086e-06
0.000163337
7.81841e-06
0.000163665
8.11954e-06
0.000164123
8.40354e-06
0.000164718
8.66078e-06
0.000165451
8.88075e-06
0.000166319
9.0527e-06
0.000167307
9.16649e-06
9.21364e-06
0.000168395
0.000196002
1.40935e-07
0.000195976
4.67359e-07
0.000195919
9.73689e-07
0.000195815
1.5754e-06
0.000195657
2.13607e-06
0.000195446
2.54661e-06
0.000195193
2.77021e-06
0.000194913
2.83556e-06
0.000194619
2.8021e-06
0.000194322
2.72722e-06
0.000194027
2.64974e-06
0.000193738
2.58833e-06
0.000193456
2.54746e-06
0.000193179
2.52436e-06
0.000192905
2.51413e-06
0.000192635
2.51227e-06
0.000192366
2.5156e-06
0.000192098
2.52221e-06
0.00019183
2.53112e-06
0.000191561
2.54192e-06
0.000191291
2.55449e-06
0.000191019
2.56887e-06
0.000190746
2.58513e-06
0.00019047
2.60335e-06
0.000190192
2.62359e-06
0.000189912
2.64586e-06
0.000189628
2.67017e-06
0.000189342
2.69649e-06
0.000189053
2.72478e-06
0.00018876
2.75496e-06
0.000188465
2.78696e-06
0.000188166
2.8207e-06
0.000187863
2.85609e-06
0.000187558
2.89305e-06
0.000187249
2.93153e-06
0.000186937
2.97147e-06
0.000186621
3.01284e-06
0.000186302
3.05564e-06
0.000185979
3.0999e-06
0.000185653
3.14566e-06
0.000185324
3.19302e-06
0.000184992
3.24208e-06
0.000184656
3.29298e-06
0.000184317
3.34591e-06
0.000183975
3.40107e-06
0.00018363
3.45869e-06
0.000183282
3.51906e-06
0.000182932
3.58247e-06
0.000182578
3.64927e-06
0.000182223
3.71983e-06
0.000181865
3.79454e-06
0.000181506
3.87386e-06
0.000181146
3.95826e-06
0.000180785
4.04823e-06
0.000180424
4.14432e-06
0.000180064
4.24707e-06
0.000179706
4.35708e-06
0.000179352
4.47491e-06
0.000179003
4.60117e-06
0.000178661
4.7364e-06
0.000178328
4.88113e-06
0.000178008
5.03582e-06
0.000177704
5.20082e-06
0.000177419
5.37633e-06
0.000177159
5.56236e-06
0.000176929
5.75865e-06
0.000176736
5.96461e-06
0.000176587
6.17925e-06
0.000176489
6.40107e-06
0.000176452
6.62801e-06
0.000176484
6.85733e-06
0.000176596
7.0856e-06
0.000176796
7.30858e-06
0.000177093
7.5213e-06
0.000177494
7.71809e-06
0.000178005
7.89267e-06
0.000178628
8.03841e-06
0.00017936
8.14863e-06
0.000180195
8.21699e-06
0.000181124
8.23798e-06
8.20738e-06
0.00018213
0.000209732
1.48248e-07
0.000209709
4.90663e-07
0.000209656
1.02608e-06
0.00020956
1.6716e-06
0.00020941
2.28591e-06
0.000209206
2.75055e-06
0.000208957
3.01967e-06
0.000208676
3.11686e-06
0.000208377
3.10108e-06
0.000208071
3.03252e-06
0.000207767
2.95397e-06
0.000207468
2.88777e-06
0.000207174
2.84097e-06
0.000206886
2.81236e-06
0.000206603
2.79772e-06
0.000206322
2.79273e-06
0.000206044
2.79413e-06
0.000205766
2.79982e-06
0.000205489
2.80864e-06
0.000205211
2.82002e-06
0.000204931
2.83371e-06
0.000204651
2.84965e-06
0.000204368
2.86783e-06
0.000204083
2.88826e-06
0.000203796
2.91094e-06
0.000203506
2.93586e-06
0.000203213
2.96298e-06
0.000202917
2.99223e-06
0.000202618
3.02353e-06
0.000202317
3.0568e-06
0.000202012
3.09193e-06
0.000201703
3.12882e-06
0.000201392
3.16737e-06
0.000201078
3.20748e-06
0.00020076
3.24907e-06
0.00020044
3.29209e-06
0.000200116
3.33649e-06
0.000199789
3.38226e-06
0.00019946
3.42942e-06
0.000199128
3.47799e-06
0.000198792
3.52805e-06
0.000198455
3.5797e-06
0.000198115
3.63305e-06
0.000197772
3.68827e-06
0.000197428
3.74552e-06
0.000197082
3.80502e-06
0.000196734
3.86699e-06
0.000196385
3.9317e-06
0.000196034
3.99942e-06
0.000195684
4.07046e-06
0.000195333
4.14514e-06
0.000194983
4.22379e-06
0.000194635
4.30678e-06
0.000194289
4.39446e-06
0.000193946
4.4872e-06
0.000193607
4.58537e-06
0.000193275
4.68932e-06
0.000192951
4.79936e-06
0.000192636
4.91578e-06
0.000192334
5.03879e-06
0.000192046
5.16853e-06
0.000191777
5.30502e-06
0.00019153
5.44814e-06
0.000191309
5.59758e-06
0.000191118
5.75283e-06
0.000190964
5.91309e-06
0.000190851
6.07726e-06
0.000190786
6.24389e-06
0.000190776
6.41113e-06
0.000190828
6.5767e-06
0.000190947
6.73788e-06
0.000191141
6.89149e-06
0.000191416
7.03393e-06
0.000191776
7.16125e-06
0.000192225
7.26924e-06
0.000192764
7.35353e-06
0.000193392
7.40983e-06
0.000194107
7.43411e-06
0.000194901
7.42283e-06
0.000195766
7.37319e-06
7.2833e-06
0.00019669
0.000224423
1.5538e-07
0.000224402
5.12371e-07
0.000224353
1.07452e-06
0.000224263
1.76155e-06
0.000224121
2.42841e-06
0.000223923
2.94793e-06
0.000223678
3.26507e-06
0.000223397
3.39752e-06
0.000223096
3.40293e-06
0.000222785
3.34361e-06
0.000222472
3.26606e-06
0.000222164
3.19626e-06
0.000221861
3.1441e-06
0.000221563
3.1101e-06
0.00022127
3.09092e-06
0.00022098
3.08259e-06
0.000220692
3.08182e-06
0.000220406
3.08642e-06
0.000220119
3.09502e-06
0.000219833
3.1069e-06
0.000219545
3.12167e-06
0.000219255
3.13915e-06
0.000218964
3.15925e-06
0.00021867
3.1819e-06
0.000218374
3.20704e-06
0.000218075
3.23459e-06
0.000217774
3.26448e-06
0.000217469
3.2966e-06
0.000217162
3.33083e-06
0.000216852
3.36705e-06
0.000216539
3.40514e-06
0.000216223
3.44497e-06
0.000215904
3.4864e-06
0.000215582
3.52934e-06
0.000215257
3.57369e-06
0.00021493
3.61936e-06
0.0002146
3.6663e-06
0.000214268
3.71449e-06
0.000213933
3.76391e-06
0.000213597
3.81458e-06
0.000213258
3.86655e-06
0.000212918
3.91989e-06
0.000212576
3.97469e-06
0.000212234
4.03107e-06
0.00021189
4.08918e-06
0.000211546
4.14916e-06
0.000211202
4.2112e-06
0.000210858
4.27549e-06
0.000210515
4.34223e-06
0.000210174
4.41165e-06
0.000209835
4.48395e-06
0.000209499
4.55936e-06
0.000209168
4.6381e-06
0.000208842
4.72037e-06
0.000208523
4.80638e-06
0.000208212
4.89627e-06
0.000207911
4.99017e-06
0.000207623
5.08814e-06
0.000207348
5.19019e-06
0.000207091
5.29623e-06
0.000206853
5.40607e-06
0.000206639
5.51938e-06
0.000206451
5.63569e-06
0.000206295
5.75434e-06
0.000206173
5.87448e-06
0.000206091
5.99503e-06
0.000206054
6.11465e-06
0.000206066
6.23174e-06
0.000206132
6.34444e-06
0.000206259
6.45059e-06
0.000206449
6.54781e-06
0.000206707
6.63347e-06
0.000207036
6.70477e-06
0.000207438
6.7588e-06
0.000207915
6.79266e-06
0.000208465
6.80353e-06
0.000209086
6.78882e-06
0.000209774
6.74626e-06
0.000210522
6.67408e-06
0.000211325
6.57103e-06
6.43646e-06
0.000212171
0.000240144
1.62558e-07
0.000240123
5.33226e-07
0.000240077
1.12033e-06
0.000239992
1.84681e-06
0.000239855
2.56486e-06
0.000239664
3.13931e-06
0.000239423
3.506e-06
0.000239144
3.6763e-06
0.000238841
3.70583e-06
0.000238527
3.65845e-06
0.000238209
3.584e-06
0.000237893
3.51206e-06
0.000237582
3.45538e-06
0.000237275
3.41638e-06
0.000236973
3.39279e-06
0.000236675
3.38106e-06
0.000236379
3.37804e-06
0.000236084
3.38142e-06
0.000235789
3.38971e-06
0.000235494
3.40201e-06
0.000235198
3.4178e-06
0.0002349
3.43678e-06
0.000234601
3.45876e-06
0.000234299
3.48358e-06
0.000233995
3.5111e-06
0.000233688
3.54121e-06
0.000233379
3.57376e-06
0.000233067
3.60859e-06
0.000232752
3.64557e-06
0.000232435
3.68452e-06
0.000232115
3.72529e-06
0.000231792
3.76772e-06
0.000231467
3.81167e-06
0.000231139
3.857e-06
0.000230809
3.90359e-06
0.000230477
3.95135e-06
0.000230143
4.0002e-06
0.000229808
4.05008e-06
0.000229471
4.10097e-06
0.000229133
4.15285e-06
0.000228793
4.20575e-06
0.000228454
4.25969e-06
0.000228114
4.31474e-06
0.000227774
4.37097e-06
0.000227434
4.42846e-06
0.000227096
4.48731e-06
0.00022676
4.54764e-06
0.000226426
4.60956e-06
0.000226095
4.6732e-06
0.000225768
4.73865e-06
0.000225446
4.80604e-06
0.00022513
4.87546e-06
0.000224821
4.94698e-06
0.00022452
5.02066e-06
0.00022423
5.09651e-06
0.000223952
5.1745e-06
0.000223688
5.25455e-06
0.000223439
5.3365e-06
0.000223209
5.42013e-06
0.000223001
5.5051e-06
0.000222816
5.59099e-06
0.000222658
5.67724e-06
0.00022253
5.76315e-06
0.000222437
5.84788e-06
0.000222381
5.93042e-06
0.000222366
6.00961e-06
0.000222397
6.08409e-06
0.000222476
6.15236e-06
0.000222608
6.21274e-06
0.000222795
6.26342e-06
0.00022304
6.30249e-06
0.000223346
6.32796e-06
0.000223713
6.33782e-06
0.000224142
6.33011e-06
0.000224631
6.30298e-06
0.00022518
6.25476e-06
0.000225785
6.18404e-06
0.000226441
6.08972e-06
0.000227144
5.97108e-06
0.000227888
5.82777e-06
5.65978e-06
0.000228664
0.000256965
1.69956e-07
0.000256944
5.53847e-07
0.0002569
1.16464e-06
0.000256818
1.92883e-06
0.000256686
2.69657e-06
0.0002565
3.32541e-06
0.000256264
3.74235e-06
0.000255988
3.95225e-06
0.000255685
4.00823e-06
0.000255369
3.97517e-06
0.000255047