/*--------------------------------*- C++ -*----------------------------------*\
| =========                 |                                                 |
| \\      /  F ield         | OpenFOAM: The Open Source CFD Toolbox           |
|  \\    /   O peration     | Version:  4.1                                   |
|   \\  /    A nd           | Web:      www.OpenFOAM.org                      |
|    \\/     M anipulation  |                                                 |
\*---------------------------------------------------------------------------*/
FoamFile
{
    version     2.0;
    format      ascii;
    class       volVectorField;
    location    "0.6";
    object      U;
}
// * * * * * * * * * * * * * * * * * * * * * * * * * * * * * * * * * * * * * //

dimensions      [0 1 -1 0 0 0 0];

internalField   nonuniform List<vector> 
12013
(
(0.0999975 1.3393e-06 0)
(0.0999738 4.2147e-06 0)
(0.0999108 8.54802e-06 0)
(0.0997997 1.33477e-05 0)
(0.0996442 1.73684e-05 0)
(0.0994593 1.98172e-05 0)
(0.0992632 2.06533e-05 0)
(0.0990699 2.03838e-05 0)
(0.0988863 1.96602e-05 0)
(0.0987135 1.89846e-05 0)
(0.098549 1.86063e-05 0)
(0.0983894 1.85718e-05 0)
(0.098232 1.88163e-05 0)
(0.0980748 1.92421e-05 0)
(0.0979167 1.97648e-05 0)
(0.0977574 2.03283e-05 0)
(0.0975967 2.09026e-05 0)
(0.0974349 2.14756e-05 0)
(0.0972721 2.20469e-05 0)
(0.0971083 2.26213e-05 0)
(0.0969436 2.32053e-05 0)
(0.096778 2.38058e-05 0)
(0.0966116 2.4429e-05 0)
(0.0964441 2.50805e-05 0)
(0.0962755 2.57655e-05 0)
(0.0961058 2.64881e-05 0)
(0.0959346 2.72523e-05 0)
(0.095762 2.80613e-05 0)
(0.0955877 2.89186e-05 0)
(0.0954116 2.98264e-05 0)
(0.0952336 3.07871e-05 0)
(0.0950533 3.18026e-05 0)
(0.0948708 3.28748e-05 0)
(0.0946858 3.40054e-05 0)
(0.0944982 3.51971e-05 0)
(0.0943079 3.64509e-05 0)
(0.0941146 3.77701e-05 0)
(0.0939183 3.91574e-05 0)
(0.0937188 4.0617e-05 0)
(0.0935159 4.2153e-05 0)
(0.0933095 4.37713e-05 0)
(0.0930994 4.54783e-05 0)
(0.0928853 4.72818e-05 0)
(0.0926672 4.91914e-05 0)
(0.0924447 5.1218e-05 0)
(0.0922175 5.33748e-05 0)
(0.0919854 5.56772e-05 0)
(0.091748 5.81426e-05 0)
(0.0915049 6.07925e-05 0)
(0.0912556 6.3651e-05 0)
(0.0909996 6.67476e-05 0)
(0.0907363 7.01163e-05 0)
(0.090465 7.37978e-05 0)
(0.0901849 7.78397e-05 0)
(0.089895 8.22995e-05 0)
(0.0895943 8.72462e-05 0)
(0.0892815 9.27625e-05 0)
(0.088955 9.89485e-05 0)
(0.0886132 0.000105927 0)
(0.088254 0.000113849 0)
(0.0878749 0.000122901 0)
(0.087473 0.000133317 0)
(0.0870448 0.000145393 0)
(0.0865859 0.000159504 0)
(0.0860913 0.000176138 0)
(0.0855545 0.000195932 0)
(0.0849674 0.000219729 0)
(0.0843198 0.000248664 0)
(0.0835989 0.000284293 0)
(0.0827879 0.000328779 0)
(0.0818646 0.000385189 0)
(0.0807994 0.000457962 0)
(0.0795518 0.000553646 0)
(0.0780657 0.000682108 0)
(0.0762615 0.00085853 0)
(0.0740249 0.00110676 0)
(0.0711879 0.00146503 0)
(0.0674873 0.00199778 0)
(0.0625196 0.00283334 0)
(0.0558225 0.00432908 0)
(0.0483586 0.00809639 0)
(0.0999979 4.06747e-06 0)
(0.0999747 1.28746e-05 0)
(0.0999127 2.61532e-05 0)
(0.0998027 4.08758e-05 0)
(0.0996485 5.32237e-05 0)
(0.0994646 6.07602e-05 0)
(0.0992692 6.33521e-05 0)
(0.0990763 6.25471e-05 0)
(0.0988929 6.03434e-05 0)
(0.0987201 5.82773e-05 0)
(0.0985557 5.7119e-05 0)
(0.0983961 5.70115e-05 0)
(0.0982388 5.77566e-05 0)
(0.0980816 5.90573e-05 0)
(0.0979237 6.06565e-05 0)
(0.0977646 6.23811e-05 0)
(0.0976042 6.41393e-05 0)
(0.0974427 6.58951e-05 0)
(0.0972801 6.76467e-05 0)
(0.0971166 6.94082e-05 0)
(0.0969523 7.11996e-05 0)
(0.096787 7.30418e-05 0)
(0.0966209 7.4954e-05 0)
(0.0964537 7.69533e-05 0)
(0.0962855 7.90552e-05 0)
(0.096116 8.12727e-05 0)
(0.0959452 8.3618e-05 0)
(0.0957729 8.61015e-05 0)
(0.0955989 8.87319e-05 0)
(0.0954231 9.15174e-05 0)
(0.0952454 9.44649e-05 0)
(0.0950655 9.75808e-05 0)
(0.0948833 0.00010087 0)
(0.0946986 0.000104339 0)
(0.0945114 0.000107994 0)
(0.0943214 0.00011184 0)
(0.0941285 0.000115886 0)
(0.0939325 0.000120141 0)
(0.0937334 0.000124617 0)
(0.0935309 0.000129327 0)
(0.0933249 0.000134289 0)
(0.0931152 0.000139523 0)
(0.0929017 0.000145052 0)
(0.092684 0.000150906 0)
(0.092462 0.000157118 0)
(0.0922354 0.000163728 0)
(0.0920039 0.000170783 0)
(0.0917672 0.000178337 0)
(0.0915248 0.000186454 0)
(0.0912762 0.00019521 0)
(0.0910211 0.000204693 0)
(0.0907587 0.000215007 0)
(0.0904885 0.000226275 0)
(0.0902095 0.000238644 0)
(0.0899209 0.000252287 0)
(0.0896216 0.000267414 0)
(0.0893104 0.000284275 0)
(0.0889859 0.000303176 0)
(0.0886463 0.000324487 0)
(0.0882896 0.000348664 0)
(0.0879136 0.000376271 0)
(0.0875153 0.000408012 0)
(0.0870915 0.000444774 0)
(0.0866381 0.000487687 0)
(0.0861502 0.000538204 0)
(0.0856217 0.000598219 0)
(0.0850453 0.000670231 0)
(0.0844117 0.000757588 0)
(0.0837091 0.000864833 0)
(0.0829228 0.000998245 0)
(0.0820335 0.00116663 0)
(0.0810162 0.00138258 0)
(0.0798379 0.00166432 0)
(0.078455 0.00203874 0)
(0.0768092 0.00254593 0)
(0.074824 0.00324612 0)
(0.0724003 0.00422918 0)
(0.0694099 0.00562672 0)
(0.0657139 0.00762624 0)
(0.0613717 0.0104311 0)
(0.0575384 0.0138632 0)
(0.0999981 6.84586e-06 0)
(0.0999758 2.19121e-05 0)
(0.0999156 4.46409e-05 0)
(0.0998083 6.99072e-05 0)
(0.0996569 9.11685e-05 0)
(0.0994756 0.000104223 0)
(0.0992822 0.000108804 0)
(0.0990904 0.000107535 0)
(0.0989075 0.000103829 0)
(0.0987348 0.000100319 0)
(0.0985703 9.8338e-05 0)
(0.0984107 9.81416e-05 0)
(0.0982534 9.93992e-05 0)
(0.0980964 0.00010161 0)
(0.0979388 0.000104335 0)
(0.0977802 0.00010728 0)
(0.0976203 0.000110288 0)
(0.0974594 0.000113296 0)
(0.0972975 0.000116301 0)
(0.0971347 0.000119325 0)
(0.096971 0.000122404 0)
(0.0968065 0.000125571 0)
(0.096641 0.00012886 0)
(0.0964745 0.000132299 0)
(0.0963069 0.000135916 0)
(0.0961381 0.000139731 0)
(0.095968 0.000143766 0)
(0.0957963 0.000148039 0)
(0.095623 0.000152563 0)
(0.0954479 0.000157354 0)
(0.0952708 0.000162423 0)
(0.0950916 0.000167781 0)
(0.09491 0.000173436 0)
(0.0947261 0.000179399 0)
(0.0945395 0.000185679 0)
(0.0943502 0.000192288 0)
(0.0941581 0.00019924 0)
(0.0939629 0.00020655 0)
(0.0937646 0.000214238 0)
(0.0935629 0.000222327 0)
(0.0933578 0.000230847 0)
(0.0931491 0.000239832 0)
(0.0929365 0.000249323 0)
(0.0927198 0.000259369 0)
(0.0924989 0.000270028 0)
(0.0922735 0.000281367 0)
(0.0920432 0.000293466 0)
(0.0918078 0.000306417 0)
(0.0915668 0.000320329 0)
(0.0913198 0.000335331 0)
(0.0910663 0.000351571 0)
(0.0908058 0.000369226 0)
(0.0905375 0.000388505 0)
(0.0902608 0.000409655 0)
(0.0899747 0.000432969 0)
(0.0896782 0.000458799 0)
(0.0893702 0.000487568 0)
(0.0890492 0.000519785 0)
(0.0887138 0.000556072 0)
(0.088362 0.000597187 0)
(0.0879916 0.000644069 0)
(0.0876001 0.000697881 0)
(0.0871845 0.000760085 0)
(0.0867409 0.00083253 0)
(0.0862652 0.00091758 0)
(0.0857519 0.00101829 0)
(0.0851947 0.00113866 0)
(0.0845857 0.00128397 0)
(0.0839155 0.00146131 0)
(0.0831721 0.00168029 0)
(0.0823411 0.00195413 0)
(0.0814046 0.00230119 0)
(0.0803409 0.00274723 0)
(0.079124 0.00332852 0)
(0.0777243 0.00409602 0)
(0.0761119 0.0051201 0)
(0.0742641 0.00649341 0)
(0.0721804 0.00832594 0)
(0.069921 0.0107185 0)
(0.0677241 0.0136491 0)
(0.0662097 0.0165418 0)
(0.0999983 9.63223e-06 0)
(0.0999773 3.1199e-05 0)
(0.0999199 6.37723e-05 0)
(0.0998166 0.000100134 0)
(0.0996699 0.000130904 0)
(0.0994931 0.000149994 0)
(0.0993029 0.000156929 0)
(0.0991131 0.000155397 0)
(0.0989311 0.000150261 0)
(0.0987585 0.000145306 0)
(0.0985938 0.000142471 0)
(0.0984342 0.000142157 0)
(0.0982769 0.000143915 0)
(0.0981203 0.000147044 0)
(0.0979632 0.000150923 0)
(0.0978053 0.000155131 0)
(0.0976463 0.000159441 0)
(0.0974864 0.000163763 0)
(0.0973255 0.00016809 0)
(0.0971638 0.000172453 0)
(0.0970012 0.000176899 0)
(0.0968378 0.000181478 0)
(0.0966734 0.000186235 0)
(0.096508 0.000191212 0)
(0.0963416 0.000196446 0)
(0.0961738 0.000201968 0)
(0.0960048 0.000207807 0)
(0.0958342 0.000213989 0)
(0.0956619 0.000220535 0)
(0.0954878 0.000227464 0)
(0.0953118 0.000234794 0)
(0.0951336 0.000242539 0)
(0.0949531 0.000250712 0)
(0.0947703 0.000259327 0)
(0.0945849 0.000268399 0)
(0.0943967 0.000277945 0)
(0.0942058 0.000287981 0)
(0.0940118 0.000298533 0)
(0.0938148 0.000309628 0)
(0.0936145 0.0003213 0)
(0.0934108 0.00033359 0)
(0.0932035 0.000346547 0)
(0.0929925 0.000360231 0)
(0.0927775 0.000374711 0)
(0.0925583 0.000390068 0)
(0.0923347 0.0004064 0)
(0.0921064 0.00042382 0)
(0.091873 0.000442458 0)
(0.0916343 0.00046247 0)
(0.0913898 0.000484036 0)
(0.0911389 0.000507369 0)
(0.0908813 0.000532718 0)
(0.0906162 0.000560377 0)
(0.0903429 0.000590694 0)
(0.0900607 0.000624081 0)
(0.0897686 0.00066103 0)
(0.0894656 0.000702132 0)
(0.0891503 0.000748096 0)
(0.0888213 0.000799783 0)
(0.088477 0.00085824 0)
(0.0881154 0.000924753 0)
(0.0877343 0.00100091 0)
(0.087331 0.0010887 0)
(0.0869025 0.00119059 0)
(0.086445 0.00130973 0)
(0.0859544 0.00145015 0)
(0.0854256 0.00161702 0)
(0.0848528 0.00181708 0)
(0.0842292 0.00205918 0)
(0.0835468 0.00235506 0)
(0.0827969 0.00272035 0)
(0.08197 0.00317599 0)
(0.0810564 0.00375 0)
(0.0800482 0.00447953 0)
(0.078942 0.00541271 0)
(0.0777452 0.00660885 0)
(0.0764854 0.00813321 0)
(0.0752255 0.0100388 0)
(0.074084 0.0123215 0)
(0.0732569 0.0148163 0)
(0.0729799 0.0169801 0)
(0.0999985 1.23975e-05 0)
(0.099979 4.05707e-05 0)
(0.0999253 8.32332e-05 0)
(0.0998277 0.000131137 0)
(0.0996877 0.000172008 0)
(0.099517 0.000197752 0)
(0.0993316 0.000207567 0)
(0.0991447 0.000206137 0)
(0.098964 0.000199766 0)
(0.0987918 0.000193432 0)
(0.098627 0.000189732 0)
(0.0984672 0.000189258 0)
(0.0983101 0.000191477 0)
(0.098154 0.0001955 0)
(0.0979977 0.000200529 0)
(0.0978408 0.000206019 0)
(0.0976831 0.000211668 0)
(0.0975246 0.000217357 0)
(0.0973652 0.000223069 0)
(0.097205 0.000228843 0)
(0.097044 0.000234738 0)
(0.0968821 0.000240817 0)
(0.0967193 0.000247138 0)
(0.0965555 0.000253754 0)
(0.0963906 0.000260714 0)
(0.0962244 0.000268057 0)
(0.0960569 0.000275821 0)
(0.0958878 0.000284039 0)
(0.095717 0.000292738 0)
(0.0955444 0.000301944 0)
(0.0953699 0.000311678 0)
(0.0951932 0.000321959 0)
(0.0950143 0.000332806 0)
(0.094833 0.000344234 0)
(0.0946492 0.000356265 0)
(0.0944627 0.000368918 0)
(0.0942735 0.000382219 0)
(0.0940813 0.000396197 0)
(0.0938861 0.00041089 0)
(0.0936877 0.000426343 0)
(0.093486 0.000442607 0)
(0.0932808 0.000459749 0)
(0.093072 0.000477845 0)
(0.0928594 0.000496986 0)
(0.0926427 0.000517278 0)
(0.0924217 0.000538846 0)
(0.0921962 0.000561838 0)
(0.0919658 0.000586423 0)
(0.0917303 0.000612803 0)
(0.0914892 0.000641209 0)
(0.0912422 0.000671917 0)
(0.0909886 0.000705245 0)
(0.090728 0.000741572 0)
(0.0904598 0.000781342 0)
(0.0901831 0.00082508 0)
(0.0898972 0.000873411 0)
(0.0896011 0.000927081 0)
(0.0892937 0.000986984 0)
(0.0889738 0.00105419 0)
(0.08864 0.00113002 0)
(0.0882907 0.00121604 0)
(0.0879239 0.0013142 0)
(0.0875377 0.00142691 0)
(0.0871297 0.00155713 0)
(0.0866971 0.00170859 0)
(0.0862369 0.00188596 0)
(0.0857458 0.00209517 0)
(0.0852202 0.00234374 0)
(0.0846563 0.00264131 0)
(0.0840506 0.00300024 0)
(0.0833999 0.0034364 0)
(0.0827026 0.00397007 0)
(0.0819596 0.00462682 0)
(0.0811773 0.00543814 0)
(0.0803699 0.0064409 0)
(0.0795658 0.00767415 0)
(0.0788131 0.00917012 0)
(0.0781864 0.0109343 0)
(0.0777884 0.0129079 0)
(0.0777343 0.0149083 0)
(0.0780837 0.0165582 0)
(0.0999986 1.50972e-05 0)
(0.099981 4.98331e-05 0)
(0.0999318 0.000102649 0)
(0.0998414 0.000162407 0)
(0.0997098 0.000213951 0)
(0.0995472 0.000247072 0)
(0.099368 0.000260474 0)
(0.0991851 0.000259697 0)
(0.0990063 0.000252436 0)
(0.0988347 0.000244873 0)
(0.09867 0.000240326 0)
(0.0985102 0.000239641 0)
(0.0983534 0.000242248 0)
(0.0981979 0.000247103 0)
(0.0980427 0.000253246 0)
(0.0978873 0.000260008 0)
(0.0977312 0.000267014 0)
(0.0975745 0.000274106 0)
(0.0974171 0.000281258 0)
(0.097259 0.000288512 0)
(0.0971 0.000295937 0)
(0.0969402 0.000303605 0)
(0.0967795 0.000311589 0)
(0.0966177 0.000319952 0)
(0.0964548 0.00032875 0)
(0.0962906 0.000338035 0)
(0.0961251 0.00034785 0)
(0.095958 0.000358235 0)
(0.0957892 0.000369224 0)
(0.0956186 0.000380849 0)
(0.095446 0.000393133 0)
(0.0952714 0.000406102 0)
(0.0950945 0.000419776 0)
(0.0949153 0.000434178 0)
(0.0947336 0.000449331 0)
(0.0945493 0.00046526 0)
(0.0943624 0.000481998 0)
(0.0941726 0.00049958 0)
(0.0939798 0.000518053 0)
(0.093784 0.000537472 0)
(0.093585 0.000557902 0)
(0.0933826 0.000579424 0)
(0.0931767 0.000602132 0)
(0.0929672 0.000626137 0)
(0.0927538 0.000651571 0)
(0.0925363 0.000678587 0)
(0.0923145 0.000707363 0)
(0.0920882 0.00073811 0)
(0.0918569 0.000771069 0)
(0.0916205 0.000806525 0)
(0.0913784 0.000844809 0)
(0.0911304 0.000886307 0)
(0.0908758 0.000931474 0)
(0.0906142 0.000980842 0)
(0.0903448 0.00103504 0)
(0.0900671 0.00109481 0)
(0.0897802 0.00116102 0)
(0.0894833 0.00123474 0)
(0.0891753 0.00131721 0)
(0.0888552 0.00140993 0)
(0.0885218 0.00151473 0)
(0.0881737 0.00163379 0)
(0.0878094 0.00176981 0)
(0.0874274 0.00192606 0)
(0.0870261 0.00210655 0)
(0.0866037 0.00231625 0)
(0.0861588 0.00256128 0)
(0.08569 0.00284922 0)
(0.0851966 0.00318947 0)
(0.0846788 0.00359361 0)
(0.0841384 0.00407582 0)
(0.0835799 0.00465322 0)
(0.0830118 0.00534592 0)
(0.0824487 0.00617645 0)
(0.0819136 0.00716791 0)
(0.0814411 0.00833954 0)
(0.0810796 0.00969817 0)
(0.0808912 0.0112232 0)
(0.0809447 0.0128445 0)
(0.0812946 0.0144163 0)
(0.0819352 0.0157053 0)
(0.0999988 1.76785e-05 0)
(0.0999831 5.87799e-05 0)
(0.0999392 0.000121616 0)
(0.099857 0.000193379 0)
(0.0997355 0.000256129 0)
(0.0995826 0.000297443 0)
(0.0994112 0.000315321 0)
(0.0992333 0.000315951 0)
(0.0990572 0.000308305 0)
(0.0988867 0.000299765 0)
(0.0987223 0.000294428 0)
(0.0985627 0.000293474 0)
(0.0984064 0.000296368 0)
(0.0982519 0.000301958 0)
(0.0980982 0.000309142 0)
(0.0979445 0.000317137 0)
(0.0977906 0.000325492 0)
(0.0976362 0.00033401 0)
(0.0974812 0.000342647 0)
(0.0973255 0.000351445 0)
(0.0971691 0.000360477 0)
(0.0970119 0.000369827 0)
(0.0968538 0.000379574 0)
(0.0966945 0.000389793 0)
(0.0965342 0.000400548 0)
(0.0963725 0.000411897 0)
(0.0962094 0.000423893 0)
(0.0960448 0.000436581 0)
(0.0958785 0.000450001 0)
(0.0957104 0.000464186 0)
(0.0955403 0.000479168 0)
(0.0953682 0.000494974 0)
(0.0951939 0.000511629 0)
(0.0950174 0.000529159 0)
(0.0948384 0.000547592 0)
(0.0946569 0.000566958 0)
(0.0944728 0.000587294 0)
(0.094286 0.000608645 0)
(0.0940963 0.000631064 0)
(0.0939037 0.000654617 0)
(0.0937081 0.000679383 0)
(0.0935093 0.000705454 0)
(0.0933072 0.000732944 0)
(0.0931016 0.000761984 0)
(0.0928924 0.000792726 0)
(0.0926794 0.000825353 0)
(0.0924623 0.000860072 0)
(0.0922411 0.000897127 0)
(0.0920153 0.000936802 0)
(0.0917848 0.000979426 0)
(0.0915491 0.00102538 0)
(0.091308 0.00107511 0)
(0.091061 0.00112914 0)
(0.0908078 0.00118807 0)
(0.0905477 0.00125261 0)
(0.0902804 0.0013236 0)
(0.0900051 0.00140202 0)
(0.0897213 0.00148904 0)
(0.0894283 0.00158603 0)
(0.0891252 0.00169462 0)
(0.0888114 0.00181676 0)
(0.0884861 0.00195478 0)
(0.0881485 0.00211148 0)
(0.0877979 0.00229018 0)
(0.0874337 0.00249493 0)
(0.0870556 0.00273054 0)
(0.0866638 0.00300284 0)
(0.0862589 0.00331876 0)
(0.0858429 0.00368656 0)
(0.0854188 0.00411597 0)
(0.084992 0.0046182 0)
(0.0845708 0.0052059 0)
(0.0841676 0.00589259 0)
(0.0838001 0.00669157 0)
(0.0834926 0.0076137 0)
(0.0832769 0.00866355 0)
(0.0831922 0.00983311 0)
(0.0832818 0.011093 0)
(0.0835852 0.0123818 0)
(0.0841227 0.0135982 0)
(0.084871 0.0146055 0)
(0.0999989 2.00926e-05 0)
(0.0999854 6.7217e-05 0)
(0.099947 0.000139742 0)
(0.0998739 0.000223487 0)
(0.0997636 0.000297908 0)
(0.0996217 0.000348299 0)
(0.0994592 0.000371701 0)
(0.0992875 0.000374686 0)
(0.099115 0.000367328 0)
(0.0989463 0.000358173 0)
(0.0987827 0.000352154 0)
(0.0986238 0.000350883 0)
(0.0984684 0.000353944 0)
(0.0983152 0.000360137 0)
(0.0981632 0.000368257 0)
(0.0980118 0.000377417 0)
(0.0978604 0.000387092 0)
(0.0977087 0.00039704 0)
(0.0975566 0.000407196 0)
(0.097404 0.000417595 0)
(0.0972506 0.00042831 0)
(0.0970965 0.000439431 0)
(0.0969413 0.000451045 0)
(0.0967852 0.000463231 0)
(0.0966278 0.000476063 0)
(0.0964692 0.000489605 0)
(0.0963091 0.000503914 0)
(0.0961474 0.000519041 0)
(0.0959841 0.00053503 0)
(0.095819 0.00055192 0)
(0.095652 0.000569744 0)
(0.0954829 0.000588532 0)
(0.0953118 0.000608315 0)
(0.0951384 0.00062912 0)
(0.0949627 0.000650979 0)
(0.0947846 0.000673928 0)
(0.094604 0.000698009 0)
(0.0944208 0.000723273 0)
(0.094235 0.000749782 0)
(0.0940464 0.000777611 0)
(0.0938549 0.00080685 0)
(0.0936604 0.000837607 0)
(0.0934629 0.000870008 0)
(0.0932622 0.000904204 0)
(0.0930581 0.000940368 0)
(0.0928506 0.000978705 0)
(0.0926394 0.00101945 0)
(0.0924243 0.00106288 0)
(0.0922053 0.00110931 0)
(0.0919819 0.0011591 0)
(0.0917541 0.00121268 0)
(0.0915216 0.00127054 0)
(0.0912839 0.00133326 0)
(0.0910409 0.00140149 0)
(0.0907922 0.001476 0)
(0.0905375 0.00155769 0)
(0.0902763 0.0016476 0)
(0.0900083 0.00174696 0)
(0.0897331 0.0018572 0)
(0.0894504 0.00197999 0)
(0.0891599 0.0021173 0)
(0.0888613 0.00227145 0)
(0.0885546 0.00244515 0)
(0.0882399 0.00264159 0)
(0.0879177 0.00286449 0)
(0.0875887 0.0031182 0)
(0.0872546 0.00340775 0)
(0.0869177 0.00373893 0)
(0.0865815 0.00411827 0)
(0.0862513 0.00455303 0)
(0.0859341 0.00505098 0)
(0.08564 0.00562004 0)
(0.0853821 0.0062676 0)
(0.0851773 0.0069993 0)
(0.085047 0.0078172 0)
(0.0850162 0.00871704 0)
(0.0851124 0.00968461 0)
(0.0853626 0.0106913 0)
(0.0857866 0.0116906 0)
(0.0863883 0.0126166 0)
(0.0871449 0.0133911 0)
(0.099999 2.23046e-05 0)
(0.0999876 7.49905e-05 0)
(0.0999548 0.000156697 0)
(0.099891 0.000252231 0)
(0.0997924 0.000338694 0)
(0.0996623 0.000399064 0)
(0.0995099 0.000429155 0)
(0.0993455 0.000435598 0)
(0.0991776 0.000429353 0)
(0.0990114 0.000420061 0)
(0.0988494 0.000413536 0)
(0.0986917 0.000411923 0)
(0.0985377 0.000415026 0)
(0.0983863 0.000421673 0)
(0.0982366 0.000430598 0)
(0.0980877 0.00044083 0)
(0.0979393 0.000451776 0)
(0.0977908 0.000463144 0)
(0.097642 0.000474843 0)
(0.0974928 0.000486892 0)
(0.0973429 0.000499362 0)
(0.0971923 0.000512343 0)
(0.0970406 0.000525924 0)
(0.096888 0.000540191 0)
(0.0967341 0.000555221 0)
(0.0965789 0.000571083 0)
(0.0964223 0.000587838 0)
(0.0962641 0.000605539 0)
(0.0961043 0.000624236 0)
(0.0959426 0.000643968 0)
(0.0957792 0.000664772 0)
(0.0956137 0.00068668 0)
(0.0954462 0.000709726 0)
(0.0952766 0.000733939 0)
(0.0951048 0.000759356 0)
(0.0949307 0.000786015 0)
(0.0947542 0.000813964 0)
(0.0945754 0.000843259 0)
(0.094394 0.000873971 0)
(0.0942101 0.000906183 0)
(0.0940236 0.000939994 0)
(0.0938343 0.000975524 0)
(0.0936423 0.00101291 0)
(0.0934473 0.00105233 0)
(0.0932494 0.00109395 0)
(0.0930483 0.00113802 0)
(0.0928441 0.00118479 0)
(0.0926365 0.00123454 0)
(0.0924254 0.00128763 0)
(0.0922107 0.00134445 0)
(0.0919922 0.00140545 0)
(0.0917697 0.00147116 0)
(0.0915432 0.00154216 0)
(0.0913123 0.00161917 0)
(0.091077 0.00170296 0)
(0.090837 0.00179446 0)
(0.0905923 0.00189473 0)
(0.0903427 0.00200499 0)
(0.0900883 0.00212664 0)
(0.0898289 0.00226133 0)
(0.0895649 0.00241091 0)
(0.0892964 0.00257753 0)
(0.0890242 0.00276368 0)
(0.0887489 0.00297215 0)
(0.0884718 0.00320614 0)
(0.0881949 0.00346923 0)
(0.0879205 0.00376537 0)
(0.0876521 0.00409889 0)
(0.0873942 0.00447436 0)
(0.0871528 0.00489645 0)
(0.0869357 0.00536962 0)
(0.0867524 0.00589771 0)
(0.0866151 0.00648326 0)
(0.0865378 0.00712654 0)
(0.086537 0.00782436 0)
(0.0866302 0.00856842 0)
(0.086835 0.00934359 0)
(0.0871663 0.0101262 0)
(0.0876325 0.0108833 0)
(0.0882309 0.0115739 0)
(0.0889437 0.0121533 0)
(0.0999991 2.43011e-05 0)
(0.0999896 8.20108e-05 0)
(0.099962 0.000172262 0)
(0.0999073 0.000279236 0)
(0.0998202 0.000377996 0)
(0.0997023 0.000449207 0)
(0.0995606 0.000487195 0)
(0.0994044 0.000498304 0)
(0.0992421 0.000494118 0)
(0.0990796 0.000485272 0)
(0.0989201 0.000478496 0)
(0.0987644 0.000476559 0)
(0.0986124 0.000479598 0)
(0.0984633 0.000486549 0)
(0.0983162 0.000496136 0)
(0.0981704 0.000507334 0)
(0.0980253 0.000519487 0)
(0.0978804 0.000532253 0)
(0.0977353 0.000545508 0)
(0.0975899 0.000559251 0)
(0.0974439 0.000573543 0)
(0.0972971 0.000588468 0)
(0.0971494 0.000604117 0)
(0.0970006 0.000620575 0)
(0.0968506 0.000637922 0)
(0.0966993 0.000656228 0)
(0.0965466 0.000675558 0)
(0.0963923 0.000695965 0)
(0.0962364 0.0007175 0)
(0.0960788 0.000740204 0)
(0.0959193 0.000764115 0)
(0.095758 0.000789268 0)
(0.0955947 0.000815696 0)
(0.0954294 0.000843432 0)
(0.0952621 0.000872513 0)
(0.0950926 0.000902984 0)
(0.0949209 0.000934894 0)
(0.0947471 0.000968305 0)
(0.0945709 0.00100329 0)
(0.0943924 0.00103995 0)
(0.0942116 0.00107838 0)
(0.0940284 0.00111871 0)
(0.0938427 0.0011611 0)
(0.0936544 0.00120571 0)
(0.0934636 0.00125276 0)
(0.0932701 0.00130248 0)
(0.0930739 0.00135514 0)
(0.092875 0.00141106 0)
(0.0926732 0.00147058 0)
(0.0924684 0.00153411 0)
(0.0922607 0.00160213 0)
(0.09205 0.00167516 0)
(0.0918362 0.0017538 0)
(0.0916193 0.00183876 0)
(0.0913993 0.00193081 0)
(0.0911763 0.00203085 0)
(0.0909503 0.0021399 0)
(0.0907215 0.00225913 0)
(0.0904902 0.00238983 0)
(0.0902568 0.00253349 0)
(0.0900219 0.00269177 0)
(0.0897861 0.00286655 0)
(0.0895506 0.0030599 0)
(0.0893168 0.00327409 0)
(0.0890865 0.00351161 0)
(0.0888621 0.00377512 0)
(0.0886468 0.00406738 0)
(0.0884442 0.00439118 0)
(0.0882594 0.0047492 0)
(0.0880981 0.00514379 0)
(0.0879676 0.00557669 0)
(0.0878762 0.00604866 0)
(0.0878337 0.00655895 0)
(0.0878507 0.0071047 0)
(0.0879387 0.00768026 0)
(0.0881089 0.0082764 0)
(0.0883713 0.00887967 0)
(0.0887332 0.00947207 0)
(0.0891968 0.0100313 0)
(0.0897576 0.0105321 0)
(0.0904023 0.010949 0)
(0.0999992 2.60943e-05 0)
(0.0999912 8.82685e-05 0)
(0.0999683 0.000186358 0)
(0.0999218 0.000304307 0)
(0.0998457 0.000415485 0)
(0.0997397 0.000498299 0)
(0.099609 0.000545353 0)
(0.0994617 0.000562358 0)
(0.0993061 0.000561249 0)
(0.0991483 0.000553522 0)
(0.0989922 0.00054683 0)
(0.0988395 0.000544655 0)
(0.0986902 0.000547563 0)
(0.098544 0.000554689 0)
(0.0984001 0.000564805 0)
(0.0982578 0.000576861 0)
(0.0981163 0.000590152 0)
(0.0979753 0.000604288 0)
(0.0978343 0.000619106 0)
(0.097693 0.00063458 0)
(0.0975511 0.000650754 0)
(0.0974085 0.000667705 0)
(0.097265 0.000685516 0)
(0.0971205 0.000704271 0)
(0.0969748 0.000724049 0)
(0.0968277 0.000744918 0)
(0.0966793 0.000766943 0)
(0.0965293 0.000790177 0)
(0.0963778 0.000814668 0)
(0.0962245 0.000840461 0)
(0.0960696 0.00086759 0)
(0.0959129 0.000896092 0)
(0.0957543 0.000925999 0)
(0.0955939 0.000957346 0)
(0.0954316 0.000990171 0)
(0.0952673 0.00102452 0)
(0.095101 0.00106045 0)
(0.0949328 0.00109801 0)
(0.0947626 0.0011373 0)
(0.0945903 0.00117841 0)
(0.094416 0.00122144 0)
(0.0942396 0.00126654 0)
(0.0940611 0.00131385 0)
(0.0938804 0.00136357 0)
(0.0936977 0.00141589 0)
(0.0935128 0.00147107 0)
(0.0933258 0.00152937 0)
(0.0931367 0.00159112 0)
(0.0929454 0.00165666 0)
(0.092752 0.00172641 0)
(0.0925565 0.00180082 0)
(0.092359 0.00188041 0)
(0.0921596 0.00196577 0)
(0.0919584 0.00205755 0)
(0.0917555 0.00215649 0)
(0.0915513 0.00226342 0)
(0.091346 0.00237927 0)
(0.0911399 0.00250506 0)
(0.0909338 0.00264194 0)
(0.0907282 0.00279117 0)
(0.0905241 0.00295411 0)
(0.0903226 0.00313225 0)
(0.090125 0.00332718 0)
(0.0899332 0.00354056 0)
(0.0897493 0.0037741 0)
(0.089576 0.00402949 0)
(0.0894165 0.00430835 0)
(0.0892746 0.00461207 0)
(0.0891548 0.00494172 0)
(0.0890624 0.00529784 0)
(0.0890035 0.00568019 0)
(0.0889845 0.00608752 0)
(0.0890127 0.00651724 0)
(0.0890955 0.00696508 0)
(0.0892401 0.00742477 0)
(0.0894529 0.00788782 0)
(0.0897391 0.0083434 0)
(0.0901013 0.00877844 0)
(0.0905388 0.00917821 0)
(0.0910468 0.00952722 0)
(0.0916157 0.00981076 0)
(0.0999992 2.77189e-05 0)
(0.0999926 9.38311e-05 0)
(0.0999735 0.00019905 0)
(0.099934 0.000327436 0)
(0.0998678 0.00045102 0)
(0.0997729 0.000546043 0)
(0.099653 0.00060321 0)
(0.0995152 0.00062729 0)
(0.0993671 0.000630288 0)
(0.0992152 0.000624414 0)
(0.0990637 0.000618222 0)
(0.0989147 0.000615969 0)
(0.098769 0.000618741 0)
(0.0986264 0.000625957 0)
(0.0984861 0.000636495 0)
(0.0983476 0.000649316 0)
(0.0982101 0.000663682 0)
(0.0980733 0.000679159 0)
(0.0979365 0.000695545 0)
(0.0977996 0.000712783 0)
(0.0976622 0.000730896 0)
(0.097524 0.000749945 0)
(0.097385 0.000770007 0)
(0.097245 0.000791157 0)
(0.0971038 0.000813468 0)
(0.0969614 0.000837008 0)
(0.0968175 0.000861835 0)
(0.0966722 0.000888001 0)
(0.0965254 0.000915552 0)
(0.0963771 0.000944527 0)
(0.0962271 0.000974963 0)
(0.0960754 0.00100689 0)
(0.0959221 0.00104035 0)
(0.095767 0.00107536 0)
(0.0956103 0.00111197 0)
(0.0954518 0.00115022 0)
(0.0952916 0.00119017 0)
(0.0951296 0.00123188 0)
(0.094966 0.00127544 0)
(0.0948006 0.00132093 0)
(0.0946335 0.00136848 0)
(0.0944647 0.00141822 0)
(0.0942943 0.00147029 0)
(0.0941222 0.0015249 0)
(0.0939485 0.00158224 0)
(0.0937733 0.00164254 0)
(0.0935965 0.00170609 0)
(0.0934183 0.00177318 0)
(0.0932387 0.00184416 0)
(0.0930579 0.00191941 0)
(0.092876 0.00199936 0)
(0.0926931 0.0020845 0)
(0.0925095 0.00217535 0)
(0.0923255 0.00227252 0)
(0.0921412 0.00237665 0)
(0.0919573 0.00248846 0)
(0.0917741 0.00260874 0)
(0.0915923 0.00273834 0)
(0.0914127 0.00287817 0)
(0.091236 0.0030292 0)
(0.0910636 0.00319246 0)
(0.0908966 0.00336901 0)
(0.0907368 0.00355989 0)
(0.090586 0.00376615 0)
(0.0904464 0.00398873 0)
(0.0903207 0.00422846 0)
(0.0902119 0.00448594 0)
(0.0901235 0.00476146 0)
(0.0900593 0.00505485 0)
(0.0900236 0.00536541 0)
(0.0900211 0.00569168 0)
(0.0900564 0.00603133 0)
(0.0901345 0.006381 0)
(0.09026 0.00673613 0)
(0.090437 0.00709093 0)
(0.0906689 0.00743831 0)
(0.0909575 0.00777003 0)
(0.0913031 0.00807694 0)
(0.0917037 0.00834941 0)
(0.0921549 0.00857791 0)
(0.0926497 0.00875382 0)
(0.0999993 2.92255e-05 0)
(0.0999935 9.8827e-05 0)
(0.0999774 0.000210522 0)
(0.0999438 0.000348787 0)
(0.0998859 0.000484637 0)
(0.0998012 0.000592291 0)
(0.0996917 0.000660437 0)
(0.0995635 0.000692643 0)
(0.0994236 0.000700732 0)
(0.0992784 0.000697468 0)
(0.0991325 0.000692259 0)
(0.0989883 0.00069017 0)
(0.0988469 0.00069288 0)
(0.0987084 0.000700161 0)
(0.0985723 0.000711058 0)
(0.0984379 0.000724579 0)
(0.0983048 0.000739972 0)
(0.0981724 0.000756769 0)
(0.0980401 0.000774728 0)
(0.0979077 0.00079376 0)
(0.0977749 0.000813862 0)
(0.0976415 0.000835076 0)
(0.0975072 0.000857465 0)
(0.0973719 0.000881095 0)
(0.0972355 0.00090603 0)
(0.0970979 0.00093233 0)
(0.096959 0.000960047 0)
(0.0968187 0.000989229 0)
(0.096677 0.00101992 0)
(0.0965339 0.00105214 0)
(0.0963892 0.00108594 0)
(0.0962431 0.00112134 0)
(0.0960954 0.00115837 0)
(0.0959463 0.00119707 0)
(0.0957956 0.00123746 0)
(0.0956435 0.00127959 0)
(0.0954899 0.00132351 0)
(0.0953349 0.0013693 0)
(0.0951785 0.00141702 0)
(0.0950207 0.00146676 0)
(0.0948616 0.00151865 0)
(0.0947012 0.0015728 0)
(0.0945397 0.00162938 0)
(0.094377 0.00168854 0)
(0.0942132 0.0017505 0)
(0.0940485 0.00181546 0)
(0.093883 0.00188369 0)
(0.0937168 0.00195546 0)
(0.09355 0.00203109 0)
(0.0933829 0.00211092 0)
(0.0932157 0.00219533 0)
(0.0930486 0.00228475 0)
(0.092882 0.00237962 0)
(0.0927163 0.00248045 0)
(0.0925519 0.00258778 0)
(0.0923893 0.00270217 0)
(0.0922293 0.00282424 0)
(0.0920725 0.00295461 0)
(0.0919199 0.00309394 0)
(0.0917725 0.00324289 0)
(0.0916315 0.00340212 0)
(0.0914984 0.00357222 0)
(0.0913748 0.00375377 0)
(0.0912626 0.0039472 0)
(0.0911638 0.00415283 0)
(0.0910808 0.00437073 0)
(0.0910164 0.00460075 0)
(0.0909733 0.00484235 0)
(0.0909546 0.00509459 0)
(0.0909634 0.00535602 0)
(0.0910032 0.00562457 0)
(0.091077 0.00589755 0)
(0.0911879 0.00617149 0)
(0.0913384 0.00644224 0)
(0.0915307 0.0067049 0)
(0.0917659 0.00695395 0)
(0.0920442 0.00718335 0)
(0.0923646 0.00738685 0)
(0.0927249 0.00755819 0)
(0.0931213 0.0076915 0)
(0.0935486 0.00778163 0)
(0.0999993 3.06703e-05 0)
(0.0999941 0.000103416 0)
(0.0999803 0.000221031 0)
(0.0999512 0.000368636 0)
(0.0999003 0.000516518 0)
(0.0998244 0.00063703 0)
(0.0997247 0.000716801 0)
(0.0996059 0.000758011 0)
(0.0994747 0.00077208 0)
(0.099337 0.00077217 0)
(0.0991975 0.000768471 0)
(0.0990589 0.000766863 0)
(0.0989225 0.000769664 0)
(0.0987887 0.000777057 0)
(0.0986572 0.000788304 0)
(0.0985274 0.000802497 0)
(0.0983989 0.000818894 0)
(0.098271 0.000837002 0)
(0.0981435 0.000856545 0)
(0.0980158 0.000877398 0)
(0.0978878 0.000899533 0)
(0.0977592 0.000922968 0)
(0.0976299 0.000947749 0)
(0.0974996 0.000973927 0)
(0.0973682 0.00100156 0)
(0.0972357 0.00103068 0)
(0.097102 0.00106136 0)
(0.096967 0.00109361 0)
(0.0968308 0.00112748 0)
(0.0966932 0.00116299 0)
(0.0965543 0.00120018 0)
(0.0964141 0.00123905 0)
(0.0962726 0.00127964 0)
(0.0961298 0.00132198 0)
(0.0959858 0.00136609 0)
(0.0958406 0.00141202 0)
(0.0956942 0.00145981 0)
(0.0955467 0.00150951 0)
(0.0953981 0.00156121 0)
(0.0952486 0.00161499 0)
(0.0950982 0.00167094 0)
(0.094947 0.00172919 0)
(0.094795 0.00178987 0)
(0.0946425 0.00185315 0)
(0.0944896 0.00191918 0)
(0.0943363 0.00198818 0)
(0.0941829 0.00206037 0)
(0.0940296 0.00213597 0)
(0.0938765 0.00221527 0)
(0.0937241 0.00229854 0)
(0.0935725 0.00238612 0)
(0.0934222 0.00247832 0)
(0.0932735 0.0025755 0)
(0.0931269 0.00267806 0)
(0.092983 0.00278637 0)
(0.0928425 0.00290084 0)
(0.092706 0.00302188 0)
(0.0925743 0.00314989 0)
(0.0924486 0.00328525 0)
(0.0923298 0.0034283 0)
(0.0922191 0.00357935 0)
(0.092118 0.0037386 0)
(0.092028 0.00390616 0)
(0.0919508 0.00408199 0)
(0.0918882 0.00426588 0)
(0.0918423 0.0044574 0)
(0.0918151 0.00465583 0)
(0.0918088 0.00486016 0)
(0.0918257 0.00506901 0)
(0.091868 0.0052806 0)
(0.0919378 0.00549272 0)
(0.092037 0.0057027 0)
(0.0921674 0.00590744 0)
(0.09233 0.00610342 0)
(0.0925256 0.00628678 0)
(0.0927542 0.00645338 0)
(0.0930152 0.00659896 0)
(0.0933072 0.00671931 0)
(0.0936278 0.00681039 0)
(0.093974 0.00686857 0)
(0.0943419 0.00689074 0)
(0.0999993 3.21043e-05 0)
(0.0999945 0.00010776 0)
(0.0999822 0.000230859 0)
(0.0999566 0.000387317 0)
(0.0999114 0.00054693 0)
(0.0998432 0.000680353 0)
(0.0997523 0.000772172 0)
(0.0996427 0.000823062 0)
(0.0995202 0.000843871 0)
(0.0993905 0.000848008 0)
(0.099258 0.000846366 0)
(0.0991257 0.000845613 0)
(0.098995 0.000848731 0)
(0.0988665 0.000856353 0)
(0.0987399 0.000868 0)
(0.0986151 0.000882882 0)