/*--------------------------------*- C++ -*----------------------------------*\
| =========                 |                                                 |
| \\      /  F ield         | OpenFOAM: The Open Source CFD Toolbox           |
|  \\    /   O peration     | Version:  4.1                                   |
|   \\  /    A nd           | Web:      www.OpenFOAM.org                      |
|    \\/     M anipulation  |                                                 |
\*---------------------------------------------------------------------------*/
FoamFile
{
    version     2.0;
    format      ascii;
    class       volVectorField;
    location    "0.2";
    object      U;
}
// * * * * * * * * * * * * * * * * * * * * * * * * * * * * * * * * * * * * * //

dimensions      [0 1 -1 0 0 0 0];

internalField   nonuniform List<vector> 
12013
(
(0.0999331 2.03637e-05 0)
(0.0996277 3.36663e-05 0)
(0.0992508 3.14278e-05 0)
(0.0989796 2.20626e-05 0)
(0.0988072 1.52305e-05 0)
(0.098679 1.29531e-05 0)
(0.0985567 1.34384e-05 0)
(0.0984249 1.48483e-05 0)
(0.0982819 1.62653e-05 0)
(0.0981301 1.74327e-05 0)
(0.0979723 1.83707e-05 0)
(0.0978104 1.9163e-05 0)
(0.0976455 1.98805e-05 0)
(0.0974782 2.05689e-05 0)
(0.0973086 2.12538e-05 0)
(0.097137 2.19478e-05 0)
(0.0969634 2.26574e-05 0)
(0.0967877 2.33852e-05 0)
(0.0966101 2.41313e-05 0)
(0.0964305 2.48941e-05 0)
(0.0962489 2.56692e-05 0)
(0.0960655 2.64503e-05 0)
(0.0958805 2.72302e-05 0)
(0.0956939 2.8001e-05 0)
(0.095506 2.87557e-05 0)
(0.0953171 2.94879e-05 0)
(0.0951274 3.01915e-05 0)
(0.0949374 3.08627e-05 0)
(0.0947473 3.14985e-05 0)
(0.0945574 3.20982e-05 0)
(0.094368 3.26622e-05 0)
(0.0941795 3.31951e-05 0)
(0.093992 3.36995e-05 0)
(0.0938059 3.41822e-05 0)
(0.0936211 3.46494e-05 0)
(0.093438 3.51095e-05 0)
(0.0932564 3.55702e-05 0)
(0.0930766 3.60397e-05 0)
(0.0928984 3.65264e-05 0)
(0.0927218 3.70383e-05 0)
(0.0925468 3.75835e-05 0)
(0.0923732 3.81697e-05 0)
(0.0922009 3.88048e-05 0)
(0.0920297 3.94954e-05 0)
(0.0918595 4.02479e-05 0)
(0.0916901 4.10672e-05 0)
(0.0915213 4.19588e-05 0)
(0.0913528 4.29292e-05 0)
(0.0911844 4.39843e-05 0)
(0.091016 4.51312e-05 0)
(0.0908472 4.63789e-05 0)
(0.0906778 4.77397e-05 0)
(0.0905076 4.92297e-05 0)
(0.090336 5.08702e-05 0)
(0.0901628 5.26898e-05 0)
(0.0899874 5.47277e-05 0)
(0.0898092 5.70345e-05 0)
(0.0896274 5.96759e-05 0)
(0.089441 6.27364e-05 0)
(0.0892489 6.63268e-05 0)
(0.0890494 7.05891e-05 0)
(0.0888407 7.57068e-05 0)
(0.0886202 8.19206e-05 0)
(0.0883849 8.95469e-05 0)
(0.0881309 9.90047e-05 0)
(0.087853 0.000110856 0)
(0.0875448 0.000125867 0)
(0.0871976 0.000145096 0)
(0.0868003 0.000170027 0)
(0.0863376 0.000202787 0)
(0.0857892 0.000246479 0)
(0.0851267 0.000305726 0)
(0.0843101 0.000387568 0)
(0.0832821 0.000502936 0)
(0.0819587 0.000669154 0)
(0.0802152 0.000914183 0)
(0.0778624 0.00128393 0)
(0.0745959 0.00185715 0)
(0.0699372 0.00279149 0)
(0.0633085 0.00452213 0)
(0.0557564 0.00899353 0)
(0.0999393 6.18242e-05 0)
(0.0996411 0.000102776 0)
(0.0992697 9.62668e-05 0)
(0.0989987 6.78201e-05 0)
(0.098824 4.69681e-05 0)
(0.0986933 3.99621e-05 0)
(0.0985691 4.13868e-05 0)
(0.0984363 4.56504e-05 0)
(0.0982929 4.99516e-05 0)
(0.0981411 5.35061e-05 0)
(0.0979835 5.63675e-05 0)
(0.097822 5.87871e-05 0)
(0.0976575 6.09815e-05 0)
(0.0974907 6.30888e-05 0)
(0.0973217 6.51864e-05 0)
(0.0971506 6.73122e-05 0)
(0.0969776 6.94851e-05 0)
(0.0968026 7.17139e-05 0)
(0.0966256 7.39996e-05 0)
(0.0964467 7.63363e-05 0)
(0.0962659 7.87108e-05 0)
(0.0960832 8.11035e-05 0)
(0.0958989 8.34932e-05 0)
(0.0957131 8.58556e-05 0)
(0.095526 8.8169e-05 0)
(0.0953379 9.04137e-05 0)
(0.095149 9.25722e-05 0)
(0.0949598 9.46321e-05 0)
(0.0947704 9.65838e-05 0)
(0.0945813 9.84253e-05 0)
(0.0943927 0.000100159 0)
(0.0942048 0.000101797 0)
(0.094018 0.000103351 0)
(0.0938325 0.000104836 0)
(0.0936483 0.000106275 0)
(0.0934657 0.000107691 0)
(0.0932847 0.000109112 0)
(0.0931053 0.00011056 0)
(0.0929275 0.000112059 0)
(0.0927513 0.000113635 0)
(0.0925766 0.000115314 0)
(0.0924033 0.000117119 0)
(0.0922312 0.000119074 0)
(0.0920603 0.000121198 0)
(0.0918903 0.000123511 0)
(0.0917211 0.00012603 0)
(0.0915524 0.000128771 0)
(0.0913841 0.000131751 0)
(0.0912159 0.000134989 0)
(0.0910476 0.00013851 0)
(0.090879 0.00014234 0)
(0.0907099 0.000146515 0)
(0.0905398 0.000151083 0)
(0.0903685 0.00015611 0)
(0.0901956 0.000161686 0)
(0.0900205 0.000167925 0)
(0.0898427 0.000174983 0)
(0.0896614 0.000183059 0)
(0.0894757 0.000192411 0)
(0.0892844 0.000203368 0)
(0.0890861 0.000216362 0)
(0.0888788 0.000231947 0)
(0.0886603 0.000250844 0)
(0.0884276 0.000274 0)
(0.0881771 0.000302664 0)
(0.0879041 0.000338511 0)
(0.0876025 0.000383802 0)
(0.0872646 0.000441645 0)
(0.0868805 0.000516374 0)
(0.0864369 0.000614134 0)
(0.0859163 0.000743799 0)
(0.0852954 0.000918415 0)
(0.0845424 0.0011575 0)
(0.0836139 0.00149072 0)
(0.0824504 0.00196373 0)
(0.0809707 0.00264721 0)
(0.0790668 0.00364976 0)
(0.0765928 0.0051351 0)
(0.0733832 0.00734361 0)
(0.0694836 0.0105552 0)
(0.0661973 0.0146476 0)
(0.0999471 0.000103396 0)
(0.0996679 0.000174271 0)
(0.0993104 0.000164611 0)
(0.0990405 0.000117163 0)
(0.0988604 8.18568e-05 0)
(0.0987237 6.97084e-05 0)
(0.0985952 7.18407e-05 0)
(0.0984602 7.88767e-05 0)
(0.098316 8.60684e-05 0)
(0.0981643 9.20557e-05 0)
(0.0980073 9.69038e-05 0)
(0.0978466 0.000101022 0)
(0.0976831 0.000104768 0)
(0.0975173 0.00010837 0)
(0.0973494 0.000111959 0)
(0.0971796 0.000115598 0)
(0.0970079 0.000119318 0)
(0.0968342 0.000123134 0)
(0.0966586 0.000127048 0)
(0.0964812 0.000131048 0)
(0.0963019 0.000135114 0)
(0.0961208 0.000139214 0)
(0.0959382 0.000143308 0)
(0.095754 0.000147358 0)
(0.0955686 0.000151327 0)
(0.0953822 0.00015518 0)
(0.0951951 0.000158888 0)
(0.0950076 0.000162431 0)
(0.0948199 0.000165792 0)
(0.0946324 0.000168967 0)
(0.0944454 0.000171962 0)
(0.094259 0.000174793 0)
(0.0940737 0.000177482 0)
(0.0938895 0.000180057 0)
(0.0937066 0.000182555 0)
(0.0935252 0.000185016 0)
(0.0933452 0.000187484 0)
(0.0931669 0.000189998 0)
(0.09299 0.000192602 0)
(0.0928147 0.000195338 0)
(0.0926407 0.000198249 0)
(0.0924682 0.000201377 0)
(0.0922968 0.000204759 0)
(0.0921265 0.00020843 0)
(0.0919571 0.000212423 0)
(0.0917884 0.000216767 0)
(0.0916203 0.000221489 0)
(0.0914525 0.000226618 0)
(0.0912849 0.000232189 0)
(0.0911172 0.000238239 0)
(0.0909492 0.000244814 0)
(0.0907807 0.000251975 0)
(0.0906114 0.000259805 0)
(0.0904409 0.000268414 0)
(0.090269 0.000277951 0)
(0.090095 0.000288613 0)
(0.0899184 0.000300656 0)
(0.0897387 0.000314415 0)
(0.0895547 0.000330319 0)
(0.0893656 0.000348921 0)
(0.0891699 0.00037093 0)
(0.088966 0.000397263 0)
(0.0887517 0.000429102 0)
(0.0885244 0.000467991 0)
(0.088281 0.000515955 0)
(0.0880174 0.000575678 0)
(0.0877284 0.000650752 0)
(0.0874077 0.00074605 0)
(0.0870474 0.000868261 0)
(0.0866373 0.0010267 0)
(0.0861647 0.0012345 0)
(0.0856136 0.00151046 0)
(0.0849644 0.00188174 0)
(0.0841931 0.00238784 0)
(0.0832722 0.00308624 0)
(0.082174 0.00405927 0)
(0.0808785 0.00542016 0)
(0.0793903 0.00731141 0)
(0.0777816 0.00988011 0)
(0.0763248 0.0131537 0)
(0.0757336 0.0165431 0)
(0.0999565 0.000143031 0)
(0.0997069 0.000245959 0)
(0.0993715 0.000235495 0)
(0.0991041 0.000170579 0)
(0.0989162 0.00012095 0)
(0.0987704 0.000103149 0)
(0.0986356 0.000105457 0)
(0.0984973 0.000114919 0)
(0.098352 0.000124834 0)
(0.0982004 0.000133202 0)
(0.0980443 0.000140047 0)
(0.0978848 0.000145905 0)
(0.0977229 0.000151258 0)
(0.0975587 0.000156419 0)
(0.0973927 0.000161567 0)
(0.0972248 0.000166789 0)
(0.097055 0.000172129 0)
(0.0968835 0.000177607 0)
(0.0967101 0.000183226 0)
(0.096535 0.00018897 0)
(0.0963581 0.000194809 0)
(0.0961795 0.000200697 0)
(0.0959994 0.000206582 0)
(0.0958179 0.000212408 0)
(0.0956352 0.000218122 0)
(0.0954515 0.000223676 0)
(0.0952671 0.00022903 0)
(0.0950822 0.000234152 0)
(0.0948972 0.000239021 0)
(0.0947122 0.000243629 0)
(0.0945277 0.000247987 0)
(0.0943438 0.000252114 0)
(0.0941607 0.000256044 0)
(0.0939787 0.000259815 0)
(0.0937978 0.000263478 0)
(0.0936183 0.000267092 0)
(0.0934402 0.000270714 0)
(0.0932634 0.000274406 0)
(0.0930881 0.000278226 0)
(0.0929142 0.000282236 0)
(0.0927416 0.000286495 0)
(0.0925703 0.000291062 0)
(0.0924001 0.000295991 0)
(0.0922309 0.000301332 0)
(0.0920626 0.00030713 0)
(0.0918949 0.000313424 0)
(0.0917279 0.000320255 0)
(0.0915612 0.000327665 0)
(0.0913947 0.000335701 0)
(0.0912282 0.000344414 0)
(0.0910616 0.00035387 0)
(0.0908945 0.000364156 0)
(0.0907267 0.000375386 0)
(0.090558 0.000387718 0)
(0.090388 0.000401356 0)
(0.0902162 0.000416577 0)
(0.0900423 0.000433739 0)
(0.0898654 0.000453303 0)
(0.089685 0.000475863 0)
(0.0894999 0.000502176 0)
(0.0893092 0.000533215 0)
(0.0891112 0.00057022 0)
(0.0889043 0.000614786 0)
(0.0886863 0.00066897 0)
(0.0884546 0.000735446 0)
(0.0882061 0.00081771 0)
(0.0879369 0.000920372 0)
(0.0876425 0.00104957 0)
(0.0873175 0.00121354 0)
(0.0869557 0.00142346 0)
(0.0865501 0.00169459 0)
(0.0860933 0.0020479 0)
(0.0855781 0.00251231 0)
(0.085 0.00312743 0)
(0.0843601 0.00394663 0)
(0.0836722 0.00503886 0)
(0.0829737 0.0064855 0)
(0.0823436 0.0083633 0)
(0.0819261 0.0106974 0)
(0.081957 0.0133446 0)
(0.0827236 0.0157355 0)
(0.0999669 0.000178899 0)
(0.0997544 0.000315341 0)
(0.0994482 0.000307753 0)
(0.0991855 0.000228404 0)
(0.0989888 0.000165253 0)
(0.098832 0.000141259 0)
(0.0986894 0.000142922 0)
(0.0985469 0.000154188 0)
(0.0984002 0.000166468 0)
(0.0982489 0.000177051 0)
(0.098094 0.000185841 0)
(0.0979363 0.000193443 0)
(0.0977763 0.000200436 0)
(0.0976145 0.000207201 0)
(0.0974509 0.00021396 0)
(0.0972855 0.000220822 0)
(0.0971185 0.000227841 0)
(0.0969498 0.000235042 0)
(0.0967794 0.000242428 0)
(0.0966074 0.00024998 0)
(0.0964338 0.000257658 0)
(0.0962586 0.000265406 0)
(0.0960819 0.000273154 0)
(0.0959039 0.000280833 0)
(0.0957248 0.000288374 0)
(0.0955447 0.000295716 0)
(0.095364 0.000302807 0)
(0.0951827 0.000309606 0)
(0.0950013 0.000316086 0)
(0.0948198 0.000322238 0)
(0.0946387 0.000328073 0)
(0.094458 0.000333616 0)
(0.0942781 0.000338908 0)
(0.094099 0.000344 0)
(0.093921 0.000348958 0)
(0.0937441 0.000353854 0)
(0.0935684 0.000358764 0)
(0.0933939 0.000363764 0)
(0.0932208 0.000368932 0)
(0.0930489 0.000374347 0)
(0.0928782 0.000380086 0)
(0.0927086 0.000386223 0)
(0.0925401 0.000392827 0)
(0.0923726 0.000399962 0)
(0.0922059 0.000407684 0)
(0.0920399 0.000416046 0)
(0.0918745 0.0004251 0)
(0.0917095 0.000434897 0)
(0.0915449 0.000445498 0)
(0.0913803 0.000456967 0)
(0.0912158 0.00046939 0)
(0.091051 0.000482876 0)
(0.0908858 0.000497571 0)
(0.0907199 0.000513674 0)
(0.0905531 0.000531447 0)
(0.090385 0.000551235 0)
(0.0902151 0.00057349 0)
(0.090043 0.000598786 0)
(0.089868 0.000627861 0)
(0.0896894 0.000661654 0)
(0.0895062 0.00070135 0)
(0.0893173 0.000748457 0)
(0.0891215 0.000804889 0)
(0.088917 0.000873087 0)
(0.0887022 0.000956174 0)
(0.088475 0.00105816 0)
(0.0882331 0.00118424 0)
(0.0879739 0.00134115 0)
(0.0876951 0.00153766 0)
(0.0873944 0.00178529 0)
(0.0870703 0.0020991 0)
(0.0867233 0.0024988 0)
(0.0863571 0.00300991 0)
(0.0859813 0.00366488 0)
(0.0856156 0.00450336 0)
(0.0852957 0.00557007 0)
(0.0850811 0.00690689 0)
(0.0850632 0.00853328 0)
(0.0853689 0.0104066 0)
(0.086144 0.0123536 0)
(0.0874772 0.0139826 0)
(0.0999775 0.000209473 0)
(0.0998052 0.00038012 0)
(0.0995328 0.000380118 0)
(0.0992778 0.000290652 0)
(0.0990731 0.00021548 0)
(0.0989051 0.000184834 0)
(0.0987541 0.000184842 0)
(0.0986072 0.00019706 0)
(0.098459 0.000211175 0)
(0.0983081 0.000223699 0)
(0.0981547 0.000234313 0)
(0.0979991 0.000243622 0)
(0.0978417 0.000252258 0)
(0.0976827 0.000260653 0)
(0.0975221 0.000269057 0)
(0.0973599 0.000277599 0)
(0.0971963 0.00028634 0)
(0.0970311 0.000295309 0)
(0.0968644 0.00030451 0)
(0.0966962 0.000313917 0)
(0.0965265 0.000323486 0)
(0.0963554 0.000333147 0)
(0.096183 0.000342818 0)
(0.0960094 0.000352415 0)
(0.0958347 0.000361856 0)
(0.0956591 0.000371067 0)
(0.0954828 0.000379984 0)
(0.095306 0.00038856 0)
(0.0951289 0.00039676 0)
(0.0949518 0.000404573 0)
(0.0947749 0.000412011 0)
(0.0945982 0.000419104 0)
(0.0944222 0.000425899 0)
(0.0942468 0.00043246 0)
(0.0940722 0.000438863 0)
(0.0938986 0.000445195 0)
(0.093726 0.000451546 0)
(0.0935545 0.000458009 0)
(0.0933841 0.000464678 0)
(0.0932147 0.000471648 0)
(0.0930465 0.00047901 0)
(0.0928793 0.000486855 0)
(0.092713 0.000495265 0)
(0.0925477 0.000504316 0)
(0.0923832 0.000514075 0)
(0.0922194 0.000524605 0)
(0.0920563 0.000535966 0)
(0.0918938 0.000548222 0)
(0.0917317 0.000561442 0)
(0.0915699 0.000575703 0)
(0.0914083 0.000591106 0)
(0.0912468 0.000607781 0)
(0.0910852 0.000625902 0)
(0.0909234 0.000645702 0)
(0.090761 0.000667492 0)
(0.090598 0.000691677 0)
(0.0904339 0.000718781 0)
(0.0902685 0.000749475 0)
(0.0901011 0.000784606 0)
(0.0899314 0.000825245 0)
(0.0897586 0.000872732 0)
(0.0895821 0.000928751 0)
(0.089401 0.000995409 0)
(0.0892145 0.00107535 0)
(0.0890217 0.00117189 0)
(0.0888216 0.00128921 0)
(0.0886136 0.00143255 0)
(0.0883973 0.00160852 0)
(0.0881728 0.00182545 0)
(0.0879415 0.00209374 0)
(0.0877067 0.00242634 0)
(0.0874745 0.00283915 0)
(0.0872555 0.00335123 0)
(0.0870673 0.0039845 0)
(0.0869371 0.00476233 0)
(0.0869057 0.00570586 0)
(0.0870302 0.00682603 0)
(0.0873852 0.00810904 0)
(0.0880559 0.00949301 0)
(0.089116 0.0108384 0)
(0.0905749 0.01191 0)
(0.099987 0.000233865 0)
(0.0998541 0.000438619 0)
(0.0996174 0.000451373 0)
(0.0993732 0.000356941 0)
(0.0991631 0.000271881 0)
(0.0989854 0.000234356 0)
(0.0988265 0.000231663 0)
(0.0986754 0.000243855 0)
(0.0985259 0.000259151 0)
(0.0983756 0.000273247 0)
(0.098224 0.000285502 0)
(0.098071 0.000296439 0)
(0.0979165 0.000306695 0)
(0.0977607 0.00031672 0)
(0.0976035 0.000326786 0)
(0.0974451 0.00033703 0)
(0.0972853 0.00034752 0)
(0.0971242 0.000358287 0)
(0.0969618 0.000369333 0)
(0.096798 0.00038063 0)
(0.0966329 0.000392124 0)
(0.0964665 0.000403738 0)
(0.096299 0.000415377 0)
(0.0961303 0.000426946 0)
(0.0959607 0.00043835 0)
(0.0957902 0.000449503 0)
(0.0956191 0.000460332 0)
(0.0954474 0.000470783 0)
(0.0952754 0.000480814 0)
(0.0951032 0.000490413 0)
(0.0949311 0.000499592 0)
(0.0947591 0.000508383 0)
(0.0945876 0.000516839 0)
(0.0944165 0.000525034 0)
(0.094246 0.000533053 0)
(0.0940763 0.000540993 0)
(0.0939073 0.000548959 0)
(0.0937393 0.000557056 0)
(0.0935721 0.000565394 0)
(0.0934059 0.000574081 0)
(0.0932407 0.00058322 0)
(0.0930763 0.000592916 0)
(0.0929129 0.000603261 0)
(0.0927504 0.000614339 0)
(0.0925887 0.000626228 0)
(0.0924278 0.000638998 0)
(0.0922677 0.000652717 0)
(0.0921082 0.000667455 0)
(0.0919494 0.000683287 0)
(0.0917912 0.000700302 0)
(0.0916335 0.000718609 0)
(0.0914762 0.000738355 0)
(0.0913194 0.000759733 0)
(0.0911628 0.000783004 0)
(0.0910063 0.000808512 0)
(0.0908499 0.000836704 0)
(0.0906933 0.000868156 0)
(0.0905364 0.000903597 0)
(0.0903788 0.000943943 0)
(0.0902203 0.000990333 0)
(0.0900607 0.00104418 0)
(0.0898997 0.00110724 0)
(0.0897369 0.00118164 0)
(0.0895723 0.00127004 0)
(0.0894058 0.00137566 0)
(0.0892376 0.00150247 0)
(0.0890686 0.00165527 0)
(0.0889001 0.00183992 0)
(0.0887345 0.00206341 0)
(0.0885758 0.00233405 0)
(0.0884303 0.00266151 0)
(0.0883073 0.00305669 0)
(0.0882205 0.00353132 0)
(0.0881894 0.00409693 0)
(0.0882408 0.00476295 0)
(0.0884101 0.00553326 0)
(0.0887411 0.00640056 0)
(0.0892839 0.00733803 0)
(0.0900864 0.00828893 0)
(0.0911777 0.00915777 0)
(0.0925414 0.00981295 0)
(0.0999948 0.000251966 0)
(0.0998969 0.000489983 0)
(0.0996951 0.00052048 0)
(0.0994647 0.000426513 0)
(0.0992529 0.000334191 0)
(0.0990683 0.000289911 0)
(0.0989033 0.000283607 0)
(0.0987486 0.000294797 0)
(0.0985982 0.000310566 0)
(0.0984489 0.000325804 0)
(0.0982993 0.000339466 0)
(0.098149 0.000351914 0)
(0.0979978 0.000363735 0)
(0.0978456 0.000375371 0)
(0.0976923 0.000387094 0)
(0.097538 0.000399046 0)
(0.0973825 0.000411296 0)
(0.0972259 0.000423876 0)
(0.0970681 0.000436785 0)
(0.0969092 0.00044999 0)
(0.0967491 0.000463432 0)
(0.096588 0.000477025 0)
(0.0964257 0.000490667 0)
(0.0962625 0.000504249 0)
(0.0960984 0.000517668 0)
(0.0959335 0.00053083 0)
(0.095768 0.000543652 0)
(0.0956019 0.000556073 0)
(0.0954354 0.000568048 0)
(0.0952687 0.000579561 0)
(0.0951019 0.000590622 0)
(0.0949351 0.000601267 0)
(0.0947685 0.000611554 0)
(0.0946022 0.000621559 0)
(0.0944363 0.000631376 0)
(0.0942709 0.000641112 0)
(0.0941062 0.00065088 0)
(0.0939421 0.000660796 0)
(0.0937787 0.000670979 0)
(0.0936162 0.000681548 0)
(0.0934544 0.000692618 0)
(0.0932936 0.0007043 0)
(0.0931335 0.000716695 0)
(0.0929744 0.000729894 0)
(0.0928161 0.000743978 0)
(0.0926587 0.000759024 0)
(0.0925023 0.000775103 0)
(0.0923467 0.000792287 0)
(0.092192 0.000810654 0)
(0.0920382 0.000830295 0)
(0.0918853 0.000851326 0)
(0.0917334 0.000873899 0)
(0.0915823 0.000898217 0)
(0.0914322 0.000924556 0)
(0.091283 0.000953274 0)
(0.0911347 0.000984837 0)
(0.0909872 0.00101984 0)
(0.0908406 0.00105903 0)
(0.0906948 0.00110333 0)
(0.0905499 0.00115389 0)
(0.0904059 0.00121209 0)
(0.090263 0.00127961 0)
(0.0901215 0.00135849 0)
(0.0899819 0.00145115 0)
(0.0898449 0.00156048 0)
(0.0897119 0.00168989 0)
(0.0895846 0.00184335 0)
(0.0894658 0.00202548 0)
(0.0893595 0.00224146 0)
(0.089271 0.00249702 0)
(0.0892081 0.0027982 0)
(0.0891809 0.00315098 0)
(0.089203 0.00356058 0)
(0.089292 0.00403039 0)
(0.0894698 0.00456028 0)
(0.0897622 0.00514425 0)
(0.0901982 0.00576731 0)
(0.0908064 0.00640187 0)
(0.0916089 0.00700453 0)
(0.092612 0.00751558 0)
(0.0937943 0.00786511 0)
(0.1 0.000264324 0)
(0.0999315 0.000534103 0)
(0.0997619 0.000586653 0)
(0.0995476 0.000498359 0)
(0.0993383 0.000401696 0)
(0.0991501 0.000351188 0)
(0.0989811 0.000340635 0)
(0.0988242 0.000349963 0)
(0.0986735 0.000365512 0)
(0.0985254 0.00038144 0)
(0.0983782 0.000396241 0)
(0.098231 0.000410051 0)
(0.0980833 0.000423357 0)
(0.0979349 0.00043656 0)
(0.0977858 0.000449919 0)
(0.0976358 0.00046357 0)
(0.097485 0.000477578 0)
(0.0973331 0.000491973 0)
(0.0971803 0.00050675 0)
(0.0970266 0.000521872 0)
(0.0968718 0.000537274 0)
(0.0967161 0.000552864 0)
(0.0965595 0.00056853 0)
(0.096402 0.000584161 0)
(0.0962438 0.000599642 0)
(0.0960847 0.000614871 0)
(0.0959251 0.000629762 0)
(0.0957649 0.000644246 0)
(0.0956043 0.000658275 0)
(0.0954433 0.000671829 0)
(0.0952822 0.000684918 0)
(0.0951209 0.000697577 0)
(0.0949596 0.000709866 0)
(0.0947985 0.000721864 0)
(0.0946376 0.000733669 0)
(0.094477 0.000745392 0)
(0.0943169 0.000757151 0)
(0.0941572 0.00076907 0)
(0.0939981 0.000781272 0)
(0.0938397 0.000793884 0)
(0.0936821 0.000807027 0)
(0.0935252 0.000820814 0)
(0.0933691 0.000835351 0)
(0.093214 0.000850732 0)
(0.0930599 0.000867038 0)
(0.0929067 0.000884347 0)
(0.0927547 0.000902727 0)
(0.0926037 0.000922249 0)
(0.092454 0.000942986 0)
(0.0923056 0.000965026 0)
(0.0921585 0.00098848 0)
(0.0920129 0.00101349 0)
(0.0918689 0.00104027 0)
(0.0917265 0.00106908 0)
(0.0915858 0.00110027 0)
(0.091447 0.0011343 0)
(0.0913102 0.00117175 0)
(0.0911756 0.00121333 0)
(0.0910435 0.00125992 0)
(0.090914 0.00131258 0)
(0.0907877 0.00137257 0)
(0.0906651 0.00144141 0)
(0.090547 0.00152083 0)
(0.0904344 0.00161289 0)
(0.0903287 0.0017199 0)
(0.090232 0.00184451 0)
(0.0901468 0.00198962 0)
(0.0900766 0.00215835 0)
(0.0900261 0.00235395 0)
(0.090001 0.00257957 0)
(0.0900091 0.002838 0)
(0.0900597 0.00313117 0)
(0.0901644 0.00345952 0)
(0.0903369 0.00382115 0)
(0.0905928 0.00421073 0)
(0.0909489 0.00461824 0)
(0.0914216 0.00502771 0)
(0.0920246 0.00541625 0)
(0.0927652 0.00575405 0)
(0.0936396 0.0060062 0)
(0.0946285 0.00613743 0)
(0.100004 0.00027188 0)
(0.0999574 0.000571435 0)
(0.0998161 0.000649395 0)
(0.0996194 0.000571411 0)
(0.0994162 0.000473408 0)
(0.0992282 0.000417581 0)
(0.0990577 0.000402482 0)
(0.0988999 0.000409283 0)
(0.0987497 0.000424005 0)
(0.0986033 0.000440183 0)
(0.0984587 0.000455842 0)
(0.0983148 0.000470842 0)
(0.0981708 0.000485529 0)
(0.0980266 0.000500238 0)
(0.0978818 0.000515195 0)
(0.0977364 0.000530521 0)
(0.0975904 0.000546275 0)
(0.0974436 0.000562478 0)
(0.097296 0.000579119 0)
(0.0971476 0.000596159 0)
(0.0969983 0.000613526 0)
(0.0968483 0.000631123 0)
(0.0966974 0.000648834 0)
(0.0965458 0.00066654 0)
(0.0963935 0.000684123 0)
(0.0962406 0.000701475 0)
(0.096087 0.000718506 0)
(0.0959328 0.000735142 0)
(0.0957782 0.000751332 0)
(0.0956233 0.000767054 0)
(0.0954679 0.000782315 0)
(0.0953124 0.000797147 0)
(0.0951568 0.000811609 0)
(0.0950011 0.000825779 0)
(0.0948455 0.000839757 0)
(0.09469 0.000853651 0)
(0.0945349 0.000867583 0)
(0.0943801 0.000881675 0)
(0.0942258 0.000896055 0)
(0.094072 0.000910849 0)
(0.0939189 0.00092618 0)
(0.0937667 0.000942161 0)
(0.0936152 0.000958895 0)
(0.0934648 0.000976473 0)
(0.0933155 0.000994975 0)
(0.0931673 0.00101447 0)
(0.0930205 0.00103502 0)
(0.0928751 0.00105669 0)
(0.0927313 0.00107953 0)
(0.0925892 0.00110362 0)
(0.0924489 0.00112906 0)
(0.0923107 0.00115598 0)
(0.0921748 0.00118455 0)
(0.0920413 0.00121503 0)
(0.0919104 0.00124772 0)
(0.0917825 0.00128304 0)
(0.0916579 0.00132152 0)
(0.0915368 0.00136379 0)
(0.0914198 0.00141061 0)
(0.0913074 0.00146289 0)
(0.0912003 0.00152169 0)
(0.0910994 0.00158822 0)
(0.0910058 0.00166385 0)
(0.090921 0.0017501 0)
(0.0908469 0.00184862 0)
(0.0907858 0.00196114 0)
(0.0907406 0.00208943 0)
(0.0907152 0.00223517 0)
(0.0907139 0.00239979 0)
(0.0907424 0.0025843 0)
(0.0908073 0.00278893 0)
(0.0909164 0.0030128 0)
(0.0910783 0.00325342 0)
(0.0913026 0.0035062 0)
(0.0915993 0.00376386 0)
(0.0919777 0.004016 0)
(0.0924459 0.0042489 0)
(0.0930087 0.00444578 0)
(0.0936658 0.00458774 0)
(0.0944103 0.00465568 0)
(0.0952268 0.00463324 0)
(0.100006 0.000275732 0)
(0.0999755 0.000602791 0)
(0.0998583 0.000708496 0)
(0.0996795 0.000644689 0)
(0.0994854 0.000548243 0)
(0.0993008 0.000488315 0)
(0.0991312 0.000468723 0)
(0.0989741 0.000472581 0)
(0.0988253 0.000485993 0)
(0.0986811 0.000502028 0)
(0.0985394 0.000518268 0)
(0.098399 0.000534275 0)
(0.098259 0.000550225 0)
(0.098119 0.000566362 0)
(0.0979788 0.000582865 0)
(0.0978382 0.000599834 0)
(0.0976971 0.000617312 0)
(0.0975554 0.000635309 0)
(0.0974131 0.000653808 0)
(0.0972702 0.000672763 0)
(0.0971265 0.000692096 0)
(0.0969822 0.000711707 0)
(0.0968372 0.000731477 0)
(0.0966916 0.000751282 0)
(0.0965453 0.000771004 0)
(0.0963984 0.000790531 0)
(0.096251 0.000809768 0)
(0.0961029 0.00082864 0)
(0.0959544 0.000847094 0)
(0.0958055 0.000865104 0)
(0.0956562 0.000882671 0)
(0.0955065 0.000899826 0)
(0.0953567 0.00091662 0)
(0.0952067 0.000933129 0)
(0.0950566 0.000949446 0)
(0.0949066 0.000965677 0)
(0.0947568 0.000981938 0)
(0.0946073 0.00099835 0)
(0.0944581 0.00101503 0)
(0.0943096 0.00103212 0)
(0.0941617 0.00104971 0)
(0.0940146 0.00106793 0)
(0.0938685 0.00108686 0)
(0.0937234 0.0011066 0)
(0.0935797 0.0011272 0)
(0.0934373 0.00114873 0)
(0.0932965 0.00117123 0)
(0.0931575 0.00119474 0)
(0.0930205 0.00121931 0)
(0.0928857 0.00124498 0)
(0.0927534 0.00127181 0)
(0.0926237 0.00129992 0)
(0.092497 0.00132944 0)
(0.0923735 0.00136056 0)
(0.0922537 0.00139355 0)
(0.0921379 0.00142874 0)
(0.0920266 0.00146656 0)
(0.0919202 0.00150751 0)
(0.0918195 0.0015522 0)
(0.0917252 0.00160132 0)
(0.0916381 0.00165565 0)
(0.0915595 0.00171604 0)
(0.0914907 0.00178341 0)
(0.0914333 0.0018587 0)
(0.0913894 0.00194285 0)
(0.0913615 0.00203671 0)
(0.0913525 0.00214097 0)
(0.0913658 0.00225608 0)
(0.0914055 0.00238202 0)
(0.0914764 0.0025182 0)
(0.0915835 0.00266319 0)
(0.0917327 0.00281446 0)
(0.0919298 0.00296815 0)
(0.0921809 0.0031188 0)
(0.0924914 0.00325918 0)
(0.092866 0.0033803 0)
(0.0933074 0.00347172 0)
(0.0938158 0.00352212 0)
(0.0943882 0.00352042 0)
(0.0950172 0.00345718 0)
(0.0956914 0.00332627 0)
(0.100006 0.000276954 0)
(0.0999873 0.000629157 0)
(0.0998899 0.000763978 0)
(0.0997286 0.000717376 0)
(0.0995456 0.000625146 0)
(0.0993669 0.000562539 0)
(0.0992005 0.000538828 0)
(0.0990456 0.000539581 0)
(0.098899 0.00055135 0)
(0.0987577 0.00056692 0)
(0.0986193 0.000583488 0)
(0.0984825 0.000600321 0)
(0.0983466 0.000617406 0)
(0.0982111 0.000634884 0)
(0.0980755 0.000652876 0)
(0.0979398 0.000671447 0)
(0.0978038 0.000690622 0)
(0.0976674 0.000710397 0)
(0.0975304 0.000730744 0)
(0.097393 0.000751608 0)
(0.097255 0.000772909 0)
(0.0971164 0.000794541 0)
(0.0969773 0.000816383 0)
(0.0968376 0.000838312 0)
(0.0966974 0.000860208 0)
(0.0965565 0.000881958 0)
(0.0964152 0.000903466 0)
(0.0962733 0.000924652 0)
(0.0961309 0.000945462 0)
(0.095988 0.000965867 0)
(0.0958447 0.000985862 0)
(0.095701 0.00100547 0)
(0.0955571 0.00102473 0)
(0.0954129 0.00104372 0)
(0.0952687 0.00106252 0)
(0.0951244 0.00108122 0)
(0.0949803 0.00109993 0)
(0.0948364 0.00111876 0)
(0.094693 0.00113783 0)
(0.0945501 0.00115726 0)
(0.094408 0.00117714 0)
(0.0942667 0.00119757 0)
(0.0941266 0.00121863 0)
(0.0939877 0.00124041 0)
(0.0938502 0.00126293 0)
(0.0937145 0.00128625 0)
(0.0935807 0.00131037 0)
(0.093449 0.00133532 0)
(0.0933197 0.0013611 0)
(0.0931932 0.00138772 0)
(0.0930697 0.00141522 0)
(0.0929496 0.00144363 0)
(0.0928332 0.00147305 0)
(0.0927209 0.0015036 0)
(0.0926131 0.00153546 0)
(0.0925104 0.00156887 0)
(0.0924133 0.00160412 0)
(0.0923226 0.00164155 0)
(0.0922388 0.00168155 0)
(0.092163 0.00172458 0)
(0.0920961 0.00177107 0)
(0.0920395 0.00182152 0)
(0.0919946 0.00187635 0)
(0.091963 0.00193596 0)
(0.0919468 0.00200059 0)
(0.0919483 0.00207035 0)
(0.0919701 0.00214506 0)
(0.0920153 0.00222419 0)
(0.092087 0.00230674 0)
(0.0921888 0.00239111 0)
(0.0923246 0.00247497 0)
(0.0924981 0.00255511 0)
(0.0927129 0.00262733 0)
(0.0929724 0.00268642 0)
(0.0932792 0.00272615 0)
(0.0936347 0.00273954 0)
(0.0940389 0.00271922 0)
(0.0944902 0.00265815 0)
(0.0949847 0.00255046 0)
(0.0955161 0.00239248 0)
(0.0960762 0.0021836 0)
(0.100006 0.000276479 0)
(0.0999943 0.000651559 0)
(0.0999127 0.000816047 0)
(0.0997678 0.000788875 0)
(0.0995972 0.00070319 0)
(0.0994264 0.000639415 0)
(0.0992649 0.000612214 0)
(0.0991136 0.000609934 0)
(0.0989702 0.000619882 0)
(0.0988322 0.000634754 0)
(0.0986975 0.000651436 0)
(0.0985648 0.000668923 0)
(0.0984332 0.000687017 0)
(0.0983022 0.000705746 0)
(0.0981714 0.000725163 0)
(0.0980407 0.000745292 0)
(0.0979098 0.000766134 0)
(0.0977786 0.000787668 0)
(0.0976471 0.00080985 0)
(0.0975152 0.00083262 0)
(0.0973828 0.00085589 0)
(0.09725 0.00087955 0)
(0.0971167 0.000903481 0)
(0.0969829 0.00092756 0)
(0.0968486 0.000951666 0)
(0.0967138 0.000975686 0)
(0.0965784 0.000999522 0)
(0.0964426 0.00102309 0)
(0.0963063 0.00104634 0)
(0.0961695 0.00106923 0)
(0.0960322 0.00109175 0)
(0.0958946 0.00111391 0)
(0.0957567 0.00113575 0)
(0.0956186 0.00115732 0)
(0.0954804 0.00117869 0)
(0.0953422 0.00119994 0)
(0.0952041 0.00122117 0)
(0.0950663 0.00124247 0)
(0.094929 0.00126395 0)
(0.0947924 0.0012857 0)
(0.0946566 0.00130781 0)
(0.0945218 0.00133037 0)
(0.0943883 0.00135342 0)
(0.0942562 0.00137702 0)
(0.0941259 0.00140119 0)
(0.0939976 0.00142594 0)
(0.0938716 0.00145124 0)
(0.0937481 0.00147708 0)
(0.0936275 0.00150342 0)
(0.0935102 0.00153023 0)
(0.0933965 0.00155749 0)
(0.0932869 0.00158517 0)
(0.0931816 0.00161329 0)
(0.0930813 0.00164189 0)
(0.0929864 0.00167105 0)
(0.0928976 0.00170087 0)
(0.0928154 0.00173149 0)
(0.0927405 0.00176307 0)
(0.0926739 0.00179578 0)
(0.0926164 0.00182979 0)
(0.0925692 0.00186524 0)
(0.0925335 0.00190221 0)
(0.0925107 0.00194071 0)
(0.0925024 0.00198063 0)
(0.0925104 0.00202167 0)
(0.0925367 0.00206332 0)
(0.0925834 0.00210478 0)
(0.092653 0.00214489 0)
(0.0927478 0.00218206 0)
(0.0928704 0.00221422 0)
(0.0930232 0.00223869 0)
(0.0932084 0.00225223 0)
(0.093428 0.00225094 0)
(0.0936834 0.00223034 0)
(0.0939755 0.00218555 0)
(0.0943041 0.00211146 0)
(0.094668 0.00200324 0)
(0.0950648 0.00185687 0)
(0.0954909 0.00166984 0)
(0.0959414 0.00144185 0)
(0.0964104 0.00117526 0)
(0.100006 0.000275074 0)
(0.0999978 0.000670991 0)
(0.0999286 0.00086505 0)
(0.0997988 0.000858818 0)
(0.0996408 0.000781616 0)
(0.0994793 0.000718174 0)
(0.0993242 0.000688292 0)
(0.0991777 0.00068324 0)
(0.0990384 0.000691344 0)
(0.0989043 0.000705378 0)
(0.0987736 0.00072201 0)
(0.0986452 0.000740005 0)
(0.0985181 0.000758993 0)
(0.0983918 0.000778885 0)
(0.0982659 0.000799661 0)
(0.0981402 0.000821302 0)
(0.0980145 0.000843779 0)
(0.0978886 0.00086705 0)
(0.0977625 0.000891056 0)
(0.0976361 0.000915725 0)
(0.0975094 0.000940966 0)
(0.0973823 0.000966664 0)
(0.0972548 0.0009927 0)
(0.0971268 0.00101895 0)
(0.0969984 0.0010453 0)
(0.0968695 0.00107163 0)
(0.0967402 0.00109784 0)
(0.0966104 0.00112386 0)
(0.0964801 0.00114961 0)
(0.0963494 0.00117505 0)
(0.0962183 0.00120017 0)
(0.0960868 0.00122495 0)
(0.0959551 0.00124942 0)
(0.0958232 0.00127362 0)
(0.0956912 0.0012976 0)
(0.0955593 0.00132142 0)
(0.0954277 0.00134517 0)
(0.0952964 0.00136891 0)
(0.0951658 0.00139274 0)
(0.0950359 0.00141673 0)
(0.094907 0.00144094 0)
(0.0947793 0.00146543 0)
(0.0946531 0.00149023 0)
(0.0945286 0.00151535 0)
(0.0944062 0.00154078 0)
(0.0942861 0.00156649 0)
(0.0941687 0.00159241 0)
(0.0940542 0.00161848 0)
(0.0939432 0.0016446 0)
(0.0938359 0.00167069 0)
(0.0937328 0.00169666 0)
(0.0936344 0.00172243 0)
(0.0935411 0.00174792 0)
(0.0934534 0.00177307 0)
(0.0933718 0.00179784 0)
(0.0932971 0.0018222 0)
(0.0932299 0.00184612 0)
(0.0931709 0.00186957 0)
(0.093121 0.00189248 0)
(0.0930811 0.00191475 0)
(0.0930523 0.00193625 0)
(0.0930357 0.00195671 0)
(0.0930325 0.00197578 0)
(0.0930443 0.00199294 0)
(0.0930724 0.0020075 0)
(0.0931185 0.00201853 0)
(0.0931842 0.00202483 0)
(0.0932712 0.00202492 0)
(0.0933811 0.00201697 0)
(0.0935156 0.00199876 0)
(0.093676 0.00196771 0)
(0.0938635 0.00192085 0)
(0.0940789 0.00185489 0)
(0.0943225 0.00176625 0)
(0.094594 0.00165129 0)
(0.0948926 0.00150649 0)
(0.0952167 0.00132887 0)
(0.0955639 0.00111645 0)
(0.0959312 0.000868824 0)
(0.0963149 0.000587625 0)
(0.0967106 0.000276861 0)
(0.100005 0.00027333 0)
(0.099999 0.000688341 0)
(0.0999394 0.000911405 0)
(0.099823 0.000926997 0)
(0.0996776 0.000859807 0)
(0.099526 0.000798112 0)
(0.0993785 0.000766443 0)
(0.0992377 0.000759038 0)
(0.0991033 0.000765417 0)
(0.0989737 0.000778567 0)
(0.0988475 0.000795045 0)
(0.0987236 0.000813441 0)